[Molden Format]
[Title]
                                                                                
[Atoms] AU
 c     1    6 0.12076013542776E+01 0.66742740082010E+00 0.00000000000000E+00
 h     2    1 0.11234276178148E+01 0.27183059271987E+01 0.00000000000000E+00
 c     3    6 0.34592695331971E+01 -.47124447942270E+00 0.00000000000000E+00
 h     4    1 0.35476757367531E+01 -.25220458276306E+01 0.00000000000000E+00
 c     5    6 -.12076013542886E+01 -.66742740102146E+00 0.00000000000000E+00
 h     6    1 -.11234276178878E+01 -.27183059274016E+01 0.00000000000000E+00
 c     7    6 -.34592695331725E+01 0.47124447930082E+00 0.00000000000000E+00
 h     8    1 -.35476757366723E+01 0.25220458275114E+01 0.00000000000000E+00
 c     9    6 -.58775805608190E+01 -.87322321043039E+00 0.00000000000000E+00
 h    10    1 -.57799829530428E+01 -.29230166411785E+01 0.00000000000000E+00
 c    11    6 -.81247150604833E+01 0.24681098586014E+00 0.00000000000000E+00
 h    12    1 -.98607405350665E+01 -.83972891884306E+00 0.00000000000000E+00
 h    13    1 -.83118130944430E+01 0.22894851559437E+01 0.00000000000000E+00
 c    14    6 0.58775805607705E+01 0.87322321043221E+00 0.00000000000000E+00
 h    15    1 0.57799829529078E+01 0.29230166411763E+01 0.00000000000000E+00
 c    16    6 0.81247150605211E+01 -.24681098568839E+00 0.00000000000000E+00
 h    17    1 0.98607405350259E+01 0.83972891913487E+00 0.00000000000000E+00
 h    18    1 0.83118130946079E+01 -.22894851557617E+01 0.00000000000000E+00
[GTO]
    1 0
 s    5 1.00
 0.12384016938000E+04 0.55173650481097E-02
 0.18629004992000E+03 0.41088828555946E-01
 0.42251176346000E+02 0.18225382126490E+00
 0.11676557932000E+02 0.46828459437429E+00
 0.35930506482000E+01 0.44575817336002E+00
 s    1 1.00
 0.40245147363000E+00 0.10000000000000E+01
 s    1 1.00
 0.13090182668000E+00 0.10000000000000E+01
 p    3 1.00
 0.94680970621000E+01 0.56888332011037E-01
 0.20103545142000E+01 0.31294059336471E+00
 0.54771004707000E+00 0.76065016509135E+00
 p    1 1.00
 0.15268613795000E+00 0.10000000000000E+01
 d    1 1.00
 0.80000000000000E+00 0.10000000000000E+01
 
    2 0
 s    3 1.00
 0.13010701000000E+02 0.33485484812989E-01
 0.19622572000000E+01 0.23472187088125E+00
 0.44453796000000E+00 0.81377028525955E+00
 s    1 1.00
 0.12194962000000E+00 0.10000000000000E+01
 
    3 0
 s    5 1.00
 0.12384016938000E+04 0.55173650481097E-02
 0.18629004992000E+03 0.41088828555946E-01
 0.42251176346000E+02 0.18225382126490E+00
 0.11676557932000E+02 0.46828459437429E+00
 0.35930506482000E+01 0.44575817336002E+00
 s    1 1.00
 0.40245147363000E+00 0.10000000000000E+01
 s    1 1.00
 0.13090182668000E+00 0.10000000000000E+01
 p    3 1.00
 0.94680970621000E+01 0.56888332011037E-01
 0.20103545142000E+01 0.31294059336471E+00
 0.54771004707000E+00 0.76065016509135E+00
 p    1 1.00
 0.15268613795000E+00 0.10000000000000E+01
 d    1 1.00
 0.80000000000000E+00 0.10000000000000E+01
 
    4 0
 s    3 1.00
 0.13010701000000E+02 0.33485484812989E-01
 0.19622572000000E+01 0.23472187088125E+00
 0.44453796000000E+00 0.81377028525955E+00
 s    1 1.00
 0.12194962000000E+00 0.10000000000000E+01
 
    5 0
 s    5 1.00
 0.12384016938000E+04 0.55173650481097E-02
 0.18629004992000E+03 0.41088828555946E-01
 0.42251176346000E+02 0.18225382126490E+00
 0.11676557932000E+02 0.46828459437429E+00
 0.35930506482000E+01 0.44575817336002E+00
 s    1 1.00
 0.40245147363000E+00 0.10000000000000E+01
 s    1 1.00
 0.13090182668000E+00 0.10000000000000E+01
 p    3 1.00
 0.94680970621000E+01 0.56888332011037E-01
 0.20103545142000E+01 0.31294059336471E+00
 0.54771004707000E+00 0.76065016509135E+00
 p    1 1.00
 0.15268613795000E+00 0.10000000000000E+01
 d    1 1.00
 0.80000000000000E+00 0.10000000000000E+01
 
    6 0
 s    3 1.00
 0.13010701000000E+02 0.33485484812989E-01
 0.19622572000000E+01 0.23472187088125E+00
 0.44453796000000E+00 0.81377028525955E+00
 s    1 1.00
 0.12194962000000E+00 0.10000000000000E+01
 
    7 0
 s    5 1.00
 0.12384016938000E+04 0.55173650481097E-02
 0.18629004992000E+03 0.41088828555946E-01
 0.42251176346000E+02 0.18225382126490E+00
 0.11676557932000E+02 0.46828459437429E+00
 0.35930506482000E+01 0.44575817336002E+00
 s    1 1.00
 0.40245147363000E+00 0.10000000000000E+01
 s    1 1.00
 0.13090182668000E+00 0.10000000000000E+01
 p    3 1.00
 0.94680970621000E+01 0.56888332011037E-01
 0.20103545142000E+01 0.31294059336471E+00
 0.54771004707000E+00 0.76065016509135E+00
 p    1 1.00
 0.15268613795000E+00 0.10000000000000E+01
 d    1 1.00
 0.80000000000000E+00 0.10000000000000E+01
 
    8 0
 s    3 1.00
 0.13010701000000E+02 0.33485484812989E-01
 0.19622572000000E+01 0.23472187088125E+00
 0.44453796000000E+00 0.81377028525955E+00
 s    1 1.00
 0.12194962000000E+00 0.10000000000000E+01
 
    9 0
 s    5 1.00
 0.12384016938000E+04 0.55173650481097E-02
 0.18629004992000E+03 0.41088828555946E-01
 0.42251176346000E+02 0.18225382126490E+00
 0.11676557932000E+02 0.46828459437429E+00
 0.35930506482000E+01 0.44575817336002E+00
 s    1 1.00
 0.40245147363000E+00 0.10000000000000E+01
 s    1 1.00
 0.13090182668000E+00 0.10000000000000E+01
 p    3 1.00
 0.94680970621000E+01 0.56888332011037E-01
 0.20103545142000E+01 0.31294059336471E+00
 0.54771004707000E+00 0.76065016509135E+00
 p    1 1.00
 0.15268613795000E+00 0.10000000000000E+01
 d    1 1.00
 0.80000000000000E+00 0.10000000000000E+01
 
   10 0
 s    3 1.00
 0.13010701000000E+02 0.33485484812989E-01
 0.19622572000000E+01 0.23472187088125E+00
 0.44453796000000E+00 0.81377028525955E+00
 s    1 1.00
 0.12194962000000E+00 0.10000000000000E+01
 
   11 0
 s    5 1.00
 0.12384016938000E+04 0.55173650481097E-02
 0.18629004992000E+03 0.41088828555946E-01
 0.42251176346000E+02 0.18225382126490E+00
 0.11676557932000E+02 0.46828459437429E+00
 0.35930506482000E+01 0.44575817336002E+00
 s    1 1.00
 0.40245147363000E+00 0.10000000000000E+01
 s    1 1.00
 0.13090182668000E+00 0.10000000000000E+01
 p    3 1.00
 0.94680970621000E+01 0.56888332011037E-01
 0.20103545142000E+01 0.31294059336471E+00
 0.54771004707000E+00 0.76065016509135E+00
 p    1 1.00
 0.15268613795000E+00 0.10000000000000E+01
 d    1 1.00
 0.80000000000000E+00 0.10000000000000E+01
 
   12 0
 s    3 1.00
 0.13010701000000E+02 0.33485484812989E-01
 0.19622572000000E+01 0.23472187088125E+00
 0.44453796000000E+00 0.81377028525955E+00
 s    1 1.00
 0.12194962000000E+00 0.10000000000000E+01
 
   13 0
 s    3 1.00
 0.13010701000000E+02 0.33485484812989E-01
 0.19622572000000E+01 0.23472187088125E+00
 0.44453796000000E+00 0.81377028525955E+00
 s    1 1.00
 0.12194962000000E+00 0.10000000000000E+01
 
   14 0
 s    5 1.00
 0.12384016938000E+04 0.55173650481097E-02
 0.18629004992000E+03 0.41088828555946E-01
 0.42251176346000E+02 0.18225382126490E+00
 0.11676557932000E+02 0.46828459437429E+00
 0.35930506482000E+01 0.44575817336002E+00
 s    1 1.00
 0.40245147363000E+00 0.10000000000000E+01
 s    1 1.00
 0.13090182668000E+00 0.10000000000000E+01
 p    3 1.00
 0.94680970621000E+01 0.56888332011037E-01
 0.20103545142000E+01 0.31294059336471E+00
 0.54771004707000E+00 0.76065016509135E+00
 p    1 1.00
 0.15268613795000E+00 0.10000000000000E+01
 d    1 1.00
 0.80000000000000E+00 0.10000000000000E+01
 
   15 0
 s    3 1.00
 0.13010701000000E+02 0.33485484812989E-01
 0.19622572000000E+01 0.23472187088125E+00
 0.44453796000000E+00 0.81377028525955E+00
 s    1 1.00
 0.12194962000000E+00 0.10000000000000E+01
 
   16 0
 s    5 1.00
 0.12384016938000E+04 0.55173650481097E-02
 0.18629004992000E+03 0.41088828555946E-01
 0.42251176346000E+02 0.18225382126490E+00
 0.11676557932000E+02 0.46828459437429E+00
 0.35930506482000E+01 0.44575817336002E+00
 s    1 1.00
 0.40245147363000E+00 0.10000000000000E+01
 s    1 1.00
 0.13090182668000E+00 0.10000000000000E+01
 p    3 1.00
 0.94680970621000E+01 0.56888332011037E-01
 0.20103545142000E+01 0.31294059336471E+00
 0.54771004707000E+00 0.76065016509135E+00
 p    1 1.00
 0.15268613795000E+00 0.10000000000000E+01
 d    1 1.00
 0.80000000000000E+00 0.10000000000000E+01
 
   17 0
 s    3 1.00
 0.13010701000000E+02 0.33485484812989E-01
 0.19622572000000E+01 0.23472187088125E+00
 0.44453796000000E+00 0.81377028525955E+00
 s    1 1.00
 0.12194962000000E+00 0.10000000000000E+01
 
   18 0
 s    3 1.00
 0.13010701000000E+02 0.33485484812989E-01
 0.19622572000000E+01 0.23472187088125E+00
 0.44453796000000E+00 0.81377028525955E+00
 s    1 1.00
 0.12194962000000E+00 0.10000000000000E+01
 
[MO]
 Sym=     1a'  
 Ene= -.11241275629481E+02
 Spin= Alpha
 Occup= 2.000000
     1 0.63441246458195E+00
     2 0.20719665937991E-01
     3 -.67265094573090E-02
     4 0.23380431031114E-03
     5 0.24446425352353E-03
     6 0.00000000000000E+00
     7 0.11281470330916E-02
     8 0.14720043871449E-02
     9 0.00000000000000E+00
    10 0.19605939623179E-03
    11 -.71205446777690E-05
    12 -.18893885155402E-03
    13 -.32913060314942E-03
    14 0.00000000000000E+00
    15 0.00000000000000E+00
    16 -.14981773238093E-02
    17 0.24345748142745E-02
    18 0.28503534865226E+00
    19 0.83792323173775E-02
    20 -.24354025874239E-02
    21 0.72349667076601E-03
    22 -.20193189847926E-03
    23 0.00000000000000E+00
    24 -.51844465294187E-04
    25 -.31531375896770E-02
    26 0.00000000000000E+00
    27 0.67835692331684E-04
    28 -.22425668101461E-04
    29 -.45410024230224E-04
    30 0.79906943442649E-04
    31 0.00000000000000E+00
    32 0.00000000000000E+00
    33 -.10341197869278E-02
    34 -.21339770908927E-03
    35 0.63441229948853E+00
    36 0.20719660130734E-01
    37 -.67265049919190E-02
    38 -.23380461969001E-03
    39 -.24446431666448E-03
    40 0.00000000000000E+00
    41 -.11281472254149E-02
    42 -.14720045860567E-02
    43 0.00000000000000E+00
    44 0.19605926140389E-03
    45 -.71205535810256E-05
    46 -.18893870782287E-03
    47 -.32913069329708E-03
    48 0.00000000000000E+00
    49 0.00000000000000E+00
    50 -.14981771167034E-02
    51 0.24345735750428E-02
    52 0.28503521902542E+00
    53 0.83792283093617E-02
    54 -.24354019487722E-02
    55 -.72349650387249E-03
    56 0.20193177004915E-03
    57 0.00000000000000E+00
    58 0.51844317602467E-04
    59 0.31531380072194E-02
    60 0.00000000000000E+00
    61 0.67835660711229E-04
    62 -.22425664682778E-04
    63 -.45409996028450E-04
    64 0.79906974356817E-04
    65 0.00000000000000E+00
    66 0.00000000000000E+00
    67 -.10341195649388E-02
    68 -.21339852891371E-03
    69 0.85350947232220E-01
    70 0.27335039486535E-02
    71 0.12935459942631E-02
    72 -.12070334623645E-03
    73 0.45537287535209E-05
    74 0.00000000000000E+00
    75 0.93819363789965E-04
    76 -.19461723034509E-02
    77 0.00000000000000E+00
    78 0.39749369230608E-04
    79 -.58313547507461E-04
    80 0.18564178276854E-04
    81 -.19333147342572E-03
    82 0.00000000000000E+00
    83 0.00000000000000E+00
    84 -.46849969782948E-03
    85 -.10866085749500E-02
    86 0.63964602749665E-02
    87 0.21345366136499E-03
    88 0.34621156220633E-04
    89 -.50183694744604E-04
    90 0.59723023391047E-04
    91 0.00000000000000E+00
    92 0.12894767920407E-04
    93 0.96019479513052E-03
    94 0.00000000000000E+00
    95 -.18753047711605E-04
    96 -.17858937372784E-04
    97 0.36611985084389E-04
    98 0.67185283504238E-04
    99 0.00000000000000E+00
   100 0.00000000000000E+00
   101 0.10583427797789E-03
   102 0.20481967198897E-03
   103 -.75252762369447E-04
   104 -.50338801768176E-03
   105 0.85351009053375E-01
   106 0.27335058553911E-02
   107 0.12935449215144E-02
   108 0.12070347811867E-03
   109 -.45537105967522E-05
   110 0.00000000000000E+00
   111 -.93819412040464E-04
   112 0.19461729085189E-02
   113 0.00000000000000E+00
   114 0.39749377475477E-04
   115 -.58313545349581E-04
   116 0.18564167874104E-04
   117 -.19333153599410E-03
   118 0.00000000000000E+00
   119 0.00000000000000E+00
   120 -.46849992202457E-03
   121 -.10866085366058E-02
   122 0.63964648994659E-02
   123 0.21345368020649E-03
   124 0.34621829409735E-04
   125 0.50183753738141E-04
   126 -.59723044983688E-04
   127 0.00000000000000E+00
   128 -.12895054987857E-04
   129 -.96019514409806E-03
   130 0.00000000000000E+00
   131 -.18753049100951E-04
   132 -.17858941902452E-04
   133 0.36611991003403E-04
   134 0.67185300891696E-04
   135 0.00000000000000E+00
   136 0.00000000000000E+00
   137 0.10583432903856E-03
   138 0.20481976665853E-03
   139 -.75252822169374E-04
   140 -.50338831423848E-03
 Sym=     2a'  
 Ene= -.11240731381933E+02
 Spin= Alpha
 Occup= 2.000000
     1 -.55884550118540E+00
     2 -.19845287456411E-01
     3 0.15746250332739E-01
     4 0.98041406094297E-03
     5 0.25969358976779E-03
     6 0.00000000000000E+00
     7 0.62039088793737E-03
     8 0.60991257772841E-03
     9 0.00000000000000E+00
    10 -.47393780143341E-03
    11 -.29648745003034E-04
    12 0.50358654643645E-03
    13 -.29080219025104E-03
    14 0.00000000000000E+00
    15 0.00000000000000E+00
    16 0.68933064114916E-03
    17 -.42136185539507E-02
    18 -.37821585862823E+00
    19 -.11467467982850E-01
    20 0.79730483397142E-03
    21 -.57987356771051E-03
    22 0.44771819195644E-03
    23 0.00000000000000E+00
    24 0.45265521885571E-03
    25 -.14135256581673E-02
    26 0.00000000000000E+00
    27 -.73673054345858E-04
    28 0.17178144006715E-04
    29 0.56494910339143E-04
    30 0.82763860577282E-04
    31 0.00000000000000E+00
    32 0.00000000000000E+00
    33 0.64418900525413E-03
    34 -.23859557540975E-02
    35 0.55884574038352E+00
    36 0.19845295429674E-01
    37 -.15746253292269E-01
    38 0.98041385040972E-03
    39 0.25969350131768E-03
    40 0.00000000000000E+00
    41 0.62039032714317E-03
    42 0.60991274374138E-03
    43 0.00000000000000E+00
    44 0.47393787538316E-03
    45 0.29648753995967E-04
    46 -.50358662937912E-03
    47 0.29080205451023E-03
    48 0.00000000000000E+00
    49 0.00000000000000E+00
    50 -.68933109469680E-03
    51 0.42136199201198E-02
    52 0.37821588811636E+00
    53 0.11467468554740E-01
    54 -.79730527216269E-03
    55 -.57987396464702E-03
    56 0.44771822328583E-03
    57 0.00000000000000E+00
    58 0.45265516964313E-03
    59 -.14135245041383E-02
    60 0.00000000000000E+00
    61 0.73673065393871E-04
    62 -.17178151347701E-04
    63 -.56494914046171E-04
    64 -.82763774684941E-04
    65 0.00000000000000E+00
    66 0.00000000000000E+00
    67 -.64418923006004E-03
    68 0.23859553538685E-02
    69 0.18793786304220E+00
    70 0.58193610571213E-02
    71 -.36085655347522E-02
    72 -.38954806347374E-03
    73 -.35568201290943E-04
    74 0.00000000000000E+00
    75 0.14508430775390E-03
    76 -.19893712463068E-02
    77 0.00000000000000E+00
    78 0.36023326622497E-04
    79 0.49479267200136E-05
    80 -.40971253342510E-04
    81 -.18243105585863E-03
    82 0.00000000000000E+00
    83 0.00000000000000E+00
    84 -.69803867358744E-03
    85 0.77459669334369E-04
    86 0.14388351683144E-01
    87 0.86602956053830E-04
    88 0.21708888382139E-02
    89 -.17157328886106E-03
    90 0.69419589817535E-04
    91 0.00000000000000E+00
    92 0.89613714582002E-03
    93 0.10337507204035E-02
    94 0.00000000000000E+00
    95 -.40801694107008E-05
    96 -.16352441728087E-04
    97 0.20432611138788E-04
    98 0.55594178095038E-04
    99 0.00000000000000E+00
   100 0.00000000000000E+00
   101 0.14575681174469E-03
   102 0.27581034285477E-03
   103 -.17308283320526E-03
   104 -.91074659972414E-03
   105 -.18793794612657E+00
   106 -.58193639548283E-02
   107 0.36085685918820E-02
   108 -.38954807732706E-03
   109 -.35568206960843E-04
   110 0.00000000000000E+00
   111 0.14508421182154E-03
   112 -.19893707169157E-02
   113 0.00000000000000E+00
   114 -.36023355374091E-04
   115 -.49479556753296E-05
   116 0.40971311049420E-04
   117 0.18243103583823E-03
   118 0.00000000000000E+00
   119 0.00000000000000E+00
   120 0.69803871916721E-03
   121 -.77460728836229E-04
   122 -.14388357946731E-01
   123 -.86602851042294E-04
   124 -.21708896750258E-02
   125 -.17157342826960E-03
   126 0.69419633005456E-04
   127 0.00000000000000E+00
   128 0.89613747134715E-03
   129 0.10337505448077E-02
   130 0.00000000000000E+00
   131 0.40801751970280E-05
   132 0.16352437639879E-04
   133 -.20432612836907E-04
   134 -.55594169060035E-04
   135 0.00000000000000E+00
   136 0.00000000000000E+00
   137 -.14575681724561E-03
   138 -.27581031020688E-03
   139 0.17308286877997E-03
   140 0.91074657985981E-03
 Sym=     3a'  
 Ene= -.11240116849885E+02
 Spin= Alpha
 Occup= 2.000000
     1 -.15653798021495E+00
     2 -.54442963379282E-02
     3 0.25582332501831E-02
     4 -.46062526453745E-03
     5 -.13865143574579E-03
     6 0.00000000000000E+00
     7 -.74852110991082E-03
     8 0.28998111303155E-02
     9 0.00000000000000E+00
    10 -.28397138031624E-04
    11 -.37100211269002E-04
    12 0.65497349300626E-04
    13 0.11112153598135E-03
    14 0.00000000000000E+00
    15 0.00000000000000E+00
    16 -.96803276395029E-04
    17 -.25584150216708E-02
    18 0.14820239876484E+00
    19 0.45310348075306E-02
    20 0.26980503291244E-02
    21 -.86313487764956E-03
    22 -.29390096072507E-03
    23 0.00000000000000E+00
    24 -.35804803384584E-03
    25 0.36369127141729E-03
    26 0.00000000000000E+00
    27 -.10348488146829E-03
    28 -.12978943108642E-05
    29 0.10478277577916E-03
    30 -.34080235769821E-03
    31 0.00000000000000E+00
    32 0.00000000000000E+00
    33 -.38635509135407E-03
    34 0.47306008673923E-03
    35 -.15653620580793E+00
    36 -.54442285357237E-02
    37 0.25582062496755E-02
    38 0.46062730102963E-03
    39 0.13865235560835E-03
    40 0.00000000000000E+00
    41 0.74852187372007E-03
    42 -.28997918778021E-02
    43 0.00000000000000E+00
    44 -.28395143257335E-04
    45 -.37100451454958E-04
    46 0.65495594712292E-04
    47 0.11112174312067E-03
    48 0.00000000000000E+00
    49 0.00000000000000E+00
    50 -.96802790326566E-04
    51 -.25583974035680E-02
    52 0.14820218034322E+00
    53 0.45310307842105E-02
    54 0.26980215938834E-02
    55 0.86312846217039E-03
    56 0.29390022548109E-03
    57 0.00000000000000E+00
    58 0.35803823393564E-03
    59 -.36369755229579E-03
    60 0.00000000000000E+00
    61 -.10348409611839E-03
    62 -.12979910614753E-05
    63 0.10478208717986E-03
    64 -.34079986804699E-03
    65 0.00000000000000E+00
    66 0.00000000000000E+00
    67 -.38635241889222E-03
    68 0.47306658748775E-03
    69 0.66464017194129E+00
    70 0.23111057521806E-01
    71 -.17202125191662E-01
    72 -.70776631641138E-04
    73 0.12027265616223E-03
    74 0.00000000000000E+00
    75 -.69871494243275E-04
    76 -.46089502674815E-03
    77 0.00000000000000E+00
    78 0.34844128097382E-03
    79 0.51143300082259E-04
    80 -.39958458105608E-03
    81 -.14659731852879E-03
    82 0.00000000000000E+00
    83 0.00000000000000E+00
    84 -.10978311012219E-02
    85 0.43517938404714E-02
    86 0.52891418182800E-01
    87 -.70889876432962E-04
    88 0.53580951184940E-02
    89 -.94289733437320E-03
    90 0.42120984528166E-03
    91 0.00000000000000E+00
    92 0.19145960615617E-02
    93 0.15569055955681E-03
    94 0.00000000000000E+00
    95 -.77875900879855E-04
    96 -.17540554560046E-04
    97 0.95416455439901E-04
    98 0.77293519098704E-04
    99 0.00000000000000E+00
   100 0.00000000000000E+00
   101 0.13138656479758E-03
   102 0.30852467806822E-04
   103 -.25594591555139E-03
   104 -.52063844960243E-03
   105 0.66464451610489E+00
   106 0.23111210468926E-01
   107 -.17202233808184E-01
   108 0.70775898970145E-04
   109 -.12027384070698E-03
   110 0.00000000000000E+00
   111 0.69870187926998E-04
   112 0.46089423600929E-03
   113 0.00000000000000E+00
   114 0.34844383496535E-03
   115 0.51143591829586E-04
   116 -.39958742679493E-03
   117 -.14659795426343E-03
   118 0.00000000000000E+00
   119 0.00000000000000E+00
   120 -.10978373982586E-02
   121 0.43518223855198E-02
   122 0.52891763409589E-01
   123 -.70890532502837E-04
   124 0.53581278407235E-02
   125 0.94290383765129E-03
   126 -.42121276645294E-03
   127 0.00000000000000E+00
   128 -.19146085848803E-02
   129 -.15568941635233E-03
   130 0.00000000000000E+00
   131 -.77876432171339E-04
   132 -.17540647963262E-04
   133 0.95417080134601E-04
   134 0.77293982158977E-04
   135 0.00000000000000E+00
   136 0.00000000000000E+00
   137 0.13138730870245E-03
   138 0.30852775854580E-04
   139 -.25594745973287E-03
   140 -.52063942421482E-03
 Sym=     4a'  
 Ene= -.11240065836964E+02
 Spin= Alpha
 Occup= 2.000000
     1 0.24958219728123E+00
     2 0.95796824084623E-02
     3 -.36268915059817E-02
     4 -.27608215089882E-03
     5 -.13134164221432E-03
     6 0.00000000000000E+00
     7 -.97170672647120E-04
     8 -.28459620683028E-02
     9 0.00000000000000E+00
    10 0.28496411184698E-03
    11 -.36480065580625E-04
    12 -.24848404626636E-03
    13 0.22996868319496E-04
    14 0.00000000000000E+00
    15 0.00000000000000E+00
    16 0.90108394593365E-04
    17 0.25125276861290E-02
    18 -.43622913250416E-01
    19 -.94282177881303E-03
    20 -.42186341730066E-02
    21 0.93944593445536E-03
    22 0.12025544784683E-03
    23 0.00000000000000E+00
    24 0.14703487189972E-02
    25 0.89848558747234E-03
    26 0.00000000000000E+00
    27 0.11399515480921E-03
    28 -.14040908986871E-04
    29 -.99954245822339E-04
    30 0.37280895188129E-03
    31 0.00000000000000E+00
    32 0.00000000000000E+00
    33 0.41650592439288E-03
    34 0.89661501729973E-03
    35 -.24958325740580E+00
    36 -.95797193715358E-02
    37 0.36269090889634E-02
    38 -.27607899748635E-03
    39 -.13134072752620E-03
    40 0.00000000000000E+00
    41 -.97165583672503E-04
    42 -.28459816778545E-02
    43 0.00000000000000E+00
    44 -.28496430897629E-03
    45 0.36479811278670E-04
    46 0.24848449769762E-03
    47 -.22996110395969E-04
    48 0.00000000000000E+00
    49 0.00000000000000E+00
    50 -.90109055258675E-04
    51 -.25125450158167E-02
    52 0.43623947641471E-01
    53 0.94285364708525E-03
    54 0.42186513695102E-02
    55 0.93945174536021E-03
    56 0.12025740017898E-03
    57 0.00000000000000E+00
    58 0.14703511233247E-02
    59 0.89848307677839E-03
    60 0.00000000000000E+00
    61 -.11399581824821E-03
    62 0.14040900485083E-04
    63 0.99954917763124E-04
    64 -.37281124083212E-03
    65 0.00000000000000E+00
    66 0.00000000000000E+00
    67 -.41650856357623E-03
    68 -.89661157341294E-03
    69 0.65115998618949E+00
    70 0.22901856638497E-01
    71 -.16237796037227E-01
    72 0.97954416587881E-04
    73 0.17424438867489E-03
    74 0.00000000000000E+00
    75 0.19833460933672E-03
    76 0.65369850037589E-04
    77 0.00000000000000E+00
    78 0.38038610898743E-03
    79 0.43566772386774E-04
    80 -.42395288137421E-03
    81 -.99865069329851E-04
    82 0.00000000000000E+00
    83 0.00000000000000E+00
    84 -.95554334184618E-03
    85 0.42466895543013E-02
    86 0.52031948450907E-01
    87 -.85042295734266E-04
    88 0.49148041857960E-02
    89 -.97180000682036E-03
    90 0.43608711836446E-03
    91 0.00000000000000E+00
    92 0.18868671010519E-02
    93 -.13992299931710E-03
    94 0.00000000000000E+00
    95 -.78943047183972E-04
    96 -.14246261560733E-04
    97 0.93189308744704E-04
    98 0.70256323919886E-04
    99 0.00000000000000E+00
   100 0.00000000000000E+00
   101 0.11447829668018E-03
   102 0.56211027239369E-04
   103 -.23521018518713E-03
   104 -.16843338174877E-03
   105 -.65115553005714E+00
   106 -.22901701766783E-01
   107 0.16237680970351E-01
   108 0.97954932917710E-04
   109 0.17424361126610E-03
   110 0.00000000000000E+00
   111 0.19833512796969E-03
   112 0.65372957776906E-04
   113 0.00000000000000E+00
   114 -.38038379079052E-03
   115 -.43566427584435E-04
   116 0.42395021837496E-03
   117 0.99864067487178E-04
   118 0.00000000000000E+00
   119 0.00000000000000E+00
   120 0.95553596604185E-03
   121 -.42466603934272E-02
   122 -.52031591910282E-01
   123 0.85041878699750E-04
   124 -.49147683649884E-02
   125 -.97179368795949E-03
   126 0.43608430262402E-03
   127 0.00000000000000E+00
   128 0.18868542543839E-02
   129 -.13992415310217E-03
   130 0.00000000000000E+00
   131 0.78942527555293E-04
   132 0.14246145599556E-04
   133 -.93188673154850E-04
   134 -.70255806641816E-04
   135 0.00000000000000E+00
   136 0.00000000000000E+00
   137 -.11447740116277E-03
   138 -.56210779235078E-04
   139 0.23520844753279E-03
   140 0.16842984795828E-03
 Sym=     5a'  
 Ene= -.11238950345676E+02
 Spin= Alpha
 Occup= 2.000000
     1 -.25315468993320E+00
     2 -.10208846510057E-01
     3 0.81175936696856E-02
     4 -.10695097191178E-02
     5 0.26180162852003E-03
     6 0.00000000000000E+00
     7 -.11264465535215E-02
     8 0.18123205382962E-02
     9 0.00000000000000E+00
    10 -.14096017380516E-03
    11 -.82581215792767E-04
    12 0.22354138959792E-03
    13 0.24946770083900E-03
    14 0.00000000000000E+00
    15 0.00000000000000E+00
    16 0.86048624994180E-04
    17 -.27963429246322E-02
    18 0.62262179496866E+00
    19 0.23357575170210E-01
    20 -.16065925491705E-01
    21 -.30694331817709E-03
    22 0.42702609194344E-03
    23 0.00000000000000E+00
    24 0.65150880336706E-04
    25 0.17520996538225E-02
    26 0.00000000000000E+00
    27 0.54354654960938E-03
    28 0.99904789821698E-05
    29 -.55353702859155E-03
    30 0.86916239376756E-05
    31 0.00000000000000E+00
    32 0.00000000000000E+00
    33 -.55979149079176E-03
    34 0.47243938326910E-02
    35 -.25315392458921E+00
    36 -.10208814461030E-01
    37 0.81175571316957E-02
    38 0.10695088551952E-02
    39 -.26179976303201E-03
    40 0.00000000000000E+00
    41 0.11264474098373E-02
    42 -.18123220932217E-02
    43 0.00000000000000E+00
    44 -.14095896559563E-03
    45 -.82581188553319E-04
    46 0.22354015414894E-03
    47 0.24946773338201E-03
    48 0.00000000000000E+00
    49 0.00000000000000E+00
    50 0.86047766349702E-04
    51 -.27963377074664E-02
    52 0.62262056623009E+00
    53 0.23357529138432E-01
    54 -.16065882770694E-01
    55 0.30694272015579E-03
    56 -.42702470995909E-03
    57 0.00000000000000E+00
    58 -.65152400926423E-04
    59 -.17521005579603E-02
    60 0.00000000000000E+00
    61 0.54354542473842E-03
    62 0.99903173831384E-05
    63 -.55353574212156E-03
    64 0.86918374768388E-05
    65 0.00000000000000E+00
    66 0.00000000000000E+00
    67 -.55978961933213E-03
    68 0.47243849181589E-02
    69 -.19679880617827E+00
    70 -.80939049593416E-02
    71 0.89533345125576E-02
    72 -.72941216592506E-03
    73 -.50451480456528E-03
    74 0.00000000000000E+00
    75 -.90936541208081E-03
    76 0.16156034792044E-03
    77 0.00000000000000E+00
    78 -.41254716610428E-03
    79 0.28172919739638E-04
    80 0.38437424636464E-03
    81 -.26155566807167E-03
    82 0.00000000000000E+00
    83 0.00000000000000E+00
    84 0.12159644587897E-03
    85 -.12678521808950E-02
    86 -.17785638072255E-01
    87 -.23942733975574E-03
    88 -.24858527746578E-02
    89 0.29612309441425E-03
    90 -.26928957204575E-03
    91 0.00000000000000E+00
    92 -.35916761351635E-03
    93 0.17689896626978E-02
    94 0.00000000000000E+00
    95 0.49073738222453E-04
    96 0.32850259480950E-04
    97 -.81923997703403E-04
    98 -.39880960740838E-04
    99 0.00000000000000E+00
   100 0.00000000000000E+00
   101 0.26164659945560E-03
   102 0.49928718893800E-03
   103 -.24323189310993E-03
   104 -.75700742462399E-03
   105 -.19679913613326E+00
   106 -.80939187532199E-02
   107 0.89533577486483E-02
   108 0.72941331885617E-03
   109 0.50451579061350E-03
   110 0.00000000000000E+00
   111 0.90936642003570E-03
   112 -.16156266910192E-03
   113 0.00000000000000E+00
   114 -.41254789675854E-03
   115 0.28172946542481E-04
   116 0.38437495021606E-03
   117 -.26155619329362E-03
   118 0.00000000000000E+00
   119 0.00000000000000E+00
   120 0.12159688128421E-03
   121 -.12678549028294E-02
   122 -.17785668105796E-01
   123 -.23942790867972E-03
   124 -.24858597782113E-02
   125 -.29612345756799E-03
   126 0.26929004055033E-03
   127 0.00000000000000E+00
   128 0.35916887517973E-03
   129 -.17689930920469E-02
   130 0.00000000000000E+00
   131 0.49073813679816E-04
   132 0.32850342541021E-04
   133 -.81924156220837E-04
   134 -.39881032783314E-04
   135 0.00000000000000E+00
   136 0.00000000000000E+00
   137 0.26164714241997E-03
   138 0.49928836986724E-03
   139 -.24323235886689E-03
   140 -.75700848154005E-03
 Sym=     6a'  
 Ene= -.11238813950436E+02
 Spin= Alpha
 Occup= 2.000000
     1 0.34073586928688E+00
     2 0.14380548737626E-01
     3 -.16768772766956E-01
     4 0.43921695047351E-03
     5 -.87055320403548E-03
     6 0.00000000000000E+00
     7 -.38651734392065E-03
     8 0.82734434002611E-03
     9 0.00000000000000E+00
    10 0.55091430374618E-03
    11 0.13161870404273E-04
    12 -.56407617415046E-03
    13 0.75758358209629E-05
    14 0.00000000000000E+00
    15 0.00000000000000E+00
    16 -.39075331097658E-03
    17 0.22917569766471E-02
    18 -.58817895513335E+00
    19 -.21986623540413E-01
    20 0.20302322616579E-01
    21 0.24301360632764E-03
    22 -.64472593910567E-03
    23 0.00000000000000E+00
    24 0.68670584885839E-03
    25 0.36872804285432E-03
    26 0.00000000000000E+00
    27 -.53561748040489E-03
    28 -.75388592399020E-04
    29 0.61100607280391E-03
    30 0.92776370209694E-04
    31 0.00000000000000E+00
    32 0.00000000000000E+00
    33 0.88780754582728E-03
    34 -.42904195054231E-02
    35 -.34073639163912E+00
    36 -.14380569905056E-01
    37 0.16768789794322E-01
    38 0.43921920598066E-03
    39 -.87055376432660E-03
    40 0.00000000000000E+00
    41 -.38651497989686E-03
    42 0.82734049903490E-03
    43 0.00000000000000E+00
    44 -.55091459851458E-03
    45 -.13162045189027E-04
    46 0.56407664370360E-03
    47 -.75753147918031E-05
    48 0.00000000000000E+00
    49 0.00000000000000E+00
    50 0.39075346488634E-03
    51 -.22917628256980E-02
    52 0.58818027799345E+00
    53 0.21986673133424E-01
    54 -.20302356706831E-01