[Molden Format]
[Title]
                                                                                
[Atoms] AU
 c     1    6 0.12076013542776E+01 0.66742740082010E+00 0.00000000000000E+00
 h     2    1 0.11234276178148E+01 0.27183059271987E+01 0.00000000000000E+00
 c     3    6 0.34592695331971E+01 -.47124447942270E+00 0.00000000000000E+00
 h     4    1 0.35476757367531E+01 -.25220458276306E+01 0.00000000000000E+00
 c     5    6 -.12076013542776E+01 -.66742740082010E+00 0.00000000000000E+00
 h     6    1 -.11234276178148E+01 -.27183059271987E+01 0.00000000000000E+00
 c     7    6 -.34592695331971E+01 0.47124447942270E+00 0.00000000000000E+00
 h     8    1 -.35476757367531E+01 0.25220458276306E+01 0.00000000000000E+00
 c     9    6 -.58775805608190E+01 -.87322321043039E+00 0.00000000000000E+00
 h    10    1 -.57799829530428E+01 -.29230166411785E+01 0.00000000000000E+00
 c    11    6 -.81247150604833E+01 0.24681098586014E+00 0.00000000000000E+00
 h    12    1 -.98607405350665E+01 -.83972891884306E+00 0.00000000000000E+00
 h    13    1 -.83118130944430E+01 0.22894851559437E+01 0.00000000000000E+00
 c    14    6 0.58775805608190E+01 0.87322321043039E+00 0.00000000000000E+00
 h    15    1 0.57799829530428E+01 0.29230166411785E+01 0.00000000000000E+00
 c    16    6 0.81247150604833E+01 -.24681098586014E+00 0.00000000000000E+00
 h    17    1 0.98607405350665E+01 0.83972891884306E+00 0.00000000000000E+00
 h    18    1 0.83118130944430E+01 -.22894851559437E+01 0.00000000000000E+00
[GTO]
    1 0
 s    5 1.00
 0.12384016938000E+04 0.55173650481097E-02
 0.18629004992000E+03 0.41088828555946E-01
 0.42251176346000E+02 0.18225382126490E+00
 0.11676557932000E+02 0.46828459437429E+00
 0.35930506482000E+01 0.44575817336002E+00
 s    1 1.00
 0.40245147363000E+00 0.10000000000000E+01
 s    1 1.00
 0.13090182668000E+00 0.10000000000000E+01
 p    3 1.00
 0.94680970621000E+01 0.56888332011037E-01
 0.20103545142000E+01 0.31294059336471E+00
 0.54771004707000E+00 0.76065016509135E+00
 p    1 1.00
 0.15268613795000E+00 0.10000000000000E+01
 d    1 1.00
 0.80000000000000E+00 0.10000000000000E+01
 
    2 0
 s    3 1.00
 0.13010701000000E+02 0.33485484812989E-01
 0.19622572000000E+01 0.23472187088125E+00
 0.44453796000000E+00 0.81377028525955E+00
 s    1 1.00
 0.12194962000000E+00 0.10000000000000E+01
 
    3 0
 s    5 1.00
 0.12384016938000E+04 0.55173650481097E-02
 0.18629004992000E+03 0.41088828555946E-01
 0.42251176346000E+02 0.18225382126490E+00
 0.11676557932000E+02 0.46828459437429E+00
 0.35930506482000E+01 0.44575817336002E+00
 s    1 1.00
 0.40245147363000E+00 0.10000000000000E+01
 s    1 1.00
 0.13090182668000E+00 0.10000000000000E+01
 p    3 1.00
 0.94680970621000E+01 0.56888332011037E-01
 0.20103545142000E+01 0.31294059336471E+00
 0.54771004707000E+00 0.76065016509135E+00
 p    1 1.00
 0.15268613795000E+00 0.10000000000000E+01
 d    1 1.00
 0.80000000000000E+00 0.10000000000000E+01
 
    4 0
 s    3 1.00
 0.13010701000000E+02 0.33485484812989E-01
 0.19622572000000E+01 0.23472187088125E+00
 0.44453796000000E+00 0.81377028525955E+00
 s    1 1.00
 0.12194962000000E+00 0.10000000000000E+01
 
    5 0
 s    5 1.00
 0.12384016938000E+04 0.55173650481097E-02
 0.18629004992000E+03 0.41088828555946E-01
 0.42251176346000E+02 0.18225382126490E+00
 0.11676557932000E+02 0.46828459437429E+00
 0.35930506482000E+01 0.44575817336002E+00
 s    1 1.00
 0.40245147363000E+00 0.10000000000000E+01
 s    1 1.00
 0.13090182668000E+00 0.10000000000000E+01
 p    3 1.00
 0.94680970621000E+01 0.56888332011037E-01
 0.20103545142000E+01 0.31294059336471E+00
 0.54771004707000E+00 0.76065016509135E+00
 p    1 1.00
 0.15268613795000E+00 0.10000000000000E+01
 d    1 1.00
 0.80000000000000E+00 0.10000000000000E+01
 
    6 0
 s    3 1.00
 0.13010701000000E+02 0.33485484812989E-01
 0.19622572000000E+01 0.23472187088125E+00
 0.44453796000000E+00 0.81377028525955E+00
 s    1 1.00
 0.12194962000000E+00 0.10000000000000E+01
 
    7 0
 s    5 1.00
 0.12384016938000E+04 0.55173650481097E-02
 0.18629004992000E+03 0.41088828555946E-01
 0.42251176346000E+02 0.18225382126490E+00
 0.11676557932000E+02 0.46828459437429E+00
 0.35930506482000E+01 0.44575817336002E+00
 s    1 1.00
 0.40245147363000E+00 0.10000000000000E+01
 s    1 1.00
 0.13090182668000E+00 0.10000000000000E+01
 p    3 1.00
 0.94680970621000E+01 0.56888332011037E-01
 0.20103545142000E+01 0.31294059336471E+00
 0.54771004707000E+00 0.76065016509135E+00
 p    1 1.00
 0.15268613795000E+00 0.10000000000000E+01
 d    1 1.00
 0.80000000000000E+00 0.10000000000000E+01
 
    8 0
 s    3 1.00
 0.13010701000000E+02 0.33485484812989E-01
 0.19622572000000E+01 0.23472187088125E+00
 0.44453796000000E+00 0.81377028525955E+00
 s    1 1.00
 0.12194962000000E+00 0.10000000000000E+01
 
    9 0
 s    5 1.00
 0.12384016938000E+04 0.55173650481097E-02
 0.18629004992000E+03 0.41088828555946E-01
 0.42251176346000E+02 0.18225382126490E+00
 0.11676557932000E+02 0.46828459437429E+00
 0.35930506482000E+01 0.44575817336002E+00
 s    1 1.00
 0.40245147363000E+00 0.10000000000000E+01
 s    1 1.00
 0.13090182668000E+00 0.10000000000000E+01
 p    3 1.00
 0.94680970621000E+01 0.56888332011037E-01
 0.20103545142000E+01 0.31294059336471E+00
 0.54771004707000E+00 0.76065016509135E+00
 p    1 1.00
 0.15268613795000E+00 0.10000000000000E+01
 d    1 1.00
 0.80000000000000E+00 0.10000000000000E+01
 
   10 0
 s    3 1.00
 0.13010701000000E+02 0.33485484812989E-01
 0.19622572000000E+01 0.23472187088125E+00
 0.44453796000000E+00 0.81377028525955E+00
 s    1 1.00
 0.12194962000000E+00 0.10000000000000E+01
 
   11 0
 s    5 1.00
 0.12384016938000E+04 0.55173650481097E-02
 0.18629004992000E+03 0.41088828555946E-01
 0.42251176346000E+02 0.18225382126490E+00
 0.11676557932000E+02 0.46828459437429E+00
 0.35930506482000E+01 0.44575817336002E+00
 s    1 1.00
 0.40245147363000E+00 0.10000000000000E+01
 s    1 1.00
 0.13090182668000E+00 0.10000000000000E+01
 p    3 1.00
 0.94680970621000E+01 0.56888332011037E-01
 0.20103545142000E+01 0.31294059336471E+00
 0.54771004707000E+00 0.76065016509135E+00
 p    1 1.00
 0.15268613795000E+00 0.10000000000000E+01
 d    1 1.00
 0.80000000000000E+00 0.10000000000000E+01
 
   12 0
 s    3 1.00
 0.13010701000000E+02 0.33485484812989E-01
 0.19622572000000E+01 0.23472187088125E+00
 0.44453796000000E+00 0.81377028525955E+00
 s    1 1.00
 0.12194962000000E+00 0.10000000000000E+01
 
   13 0
 s    3 1.00
 0.13010701000000E+02 0.33485484812989E-01
 0.19622572000000E+01 0.23472187088125E+00
 0.44453796000000E+00 0.81377028525955E+00
 s    1 1.00
 0.12194962000000E+00 0.10000000000000E+01
 
   14 0
 s    5 1.00
 0.12384016938000E+04 0.55173650481097E-02
 0.18629004992000E+03 0.41088828555946E-01
 0.42251176346000E+02 0.18225382126490E+00
 0.11676557932000E+02 0.46828459437429E+00
 0.35930506482000E+01 0.44575817336002E+00
 s    1 1.00
 0.40245147363000E+00 0.10000000000000E+01
 s    1 1.00
 0.13090182668000E+00 0.10000000000000E+01
 p    3 1.00
 0.94680970621000E+01 0.56888332011037E-01
 0.20103545142000E+01 0.31294059336471E+00
 0.54771004707000E+00 0.76065016509135E+00
 p    1 1.00
 0.15268613795000E+00 0.10000000000000E+01
 d    1 1.00
 0.80000000000000E+00 0.10000000000000E+01
 
   15 0
 s    3 1.00
 0.13010701000000E+02 0.33485484812989E-01
 0.19622572000000E+01 0.23472187088125E+00
 0.44453796000000E+00 0.81377028525955E+00
 s    1 1.00
 0.12194962000000E+00 0.10000000000000E+01
 
   16 0
 s    5 1.00
 0.12384016938000E+04 0.55173650481097E-02
 0.18629004992000E+03 0.41088828555946E-01
 0.42251176346000E+02 0.18225382126490E+00
 0.11676557932000E+02 0.46828459437429E+00
 0.35930506482000E+01 0.44575817336002E+00
 s    1 1.00
 0.40245147363000E+00 0.10000000000000E+01
 s    1 1.00
 0.13090182668000E+00 0.10000000000000E+01
 p    3 1.00
 0.94680970621000E+01 0.56888332011037E-01
 0.20103545142000E+01 0.31294059336471E+00
 0.54771004707000E+00 0.76065016509135E+00
 p    1 1.00
 0.15268613795000E+00 0.10000000000000E+01
 d    1 1.00
 0.80000000000000E+00 0.10000000000000E+01
 
   17 0
 s    3 1.00
 0.13010701000000E+02 0.33485484812989E-01
 0.19622572000000E+01 0.23472187088125E+00
 0.44453796000000E+00 0.81377028525955E+00
 s    1 1.00
 0.12194962000000E+00 0.10000000000000E+01
 
   18 0
 s    3 1.00
 0.13010701000000E+02 0.33485484812989E-01
 0.19622572000000E+01 0.23472187088125E+00
 0.44453796000000E+00 0.81377028525955E+00
 s    1 1.00
 0.12194962000000E+00 0.10000000000000E+01
 
[MO]
 Sym=     1a'  
 Ene= -.11243690395918E+02
 Spin= Alpha
 Occup= 1.000000
     1 0.69199355776047E+00
     2 0.23259178706972E-01
     3 -.87206105567373E-02
     4 0.87851494952085E-03
     5 0.18139093793213E-03
     6 0.00000000000000E+00
     7 0.10060581986461E-02
     8 0.50538738675352E-03
     9 0.00000000000000E+00
    10 0.20428946085478E-03
    11 -.14024121324668E-04
    12 -.19026533953011E-03
    13 -.37696259888287E-03
    14 0.00000000000000E+00
    15 0.00000000000000E+00
    16 -.14513436352179E-02
    17 0.34170652933397E-02
    18 0.11009572516152E+00
    19 0.22796146962288E-02
    20 0.78832737112150E-03
    21 0.90078562512947E-03
    22 -.25441455770628E-03
    23 0.00000000000000E+00
    24 0.36098165104918E-03
    25 -.34039106912836E-02
    26 0.00000000000000E+00
    27 -.67491356901629E-04
    28 -.33057742460039E-04
    29 0.10054909936167E-03
    30 0.17002428735281E-03
    31 0.00000000000000E+00
    32 0.00000000000000E+00
    33 -.77533456222437E-03
    34 -.13283367135005E-02
    35 0.69199268157708E+00
    36 0.23259145720812E-01
    37 -.87205836244334E-02
    38 -.87851545462560E-03
    39 -.18139167978075E-03
    40 0.00000000000000E+00
    41 -.10060591814722E-02
    42 -.50538876123306E-03
    43 0.00000000000000E+00
    44 0.20428864199243E-03
    45 -.14024093794809E-04
    46 -.19026454819762E-03
    47 -.37696288851152E-03
    48 0.00000000000000E+00
    49 0.00000000000000E+00
    50 -.14513427362969E-02
    51 0.34170585153829E-02
    52 0.11009559409615E+00
    53 0.22796123062593E-02
    54 0.78832112742610E-03
    55 -.90078443075519E-03
    56 0.25441380339091E-03
    57 0.00000000000000E+00
    58 -.36098127364914E-03
    59 0.34039124709258E-02
    60 0.00000000000000E+00
    61 -.67491189700084E-04
    62 -.33057683270799E-04
    63 0.10054887297088E-03
    64 0.17002413189250E-03
    65 0.00000000000000E+00
    66 0.00000000000000E+00
    67 -.77533437542724E-03
    68 -.13283377283779E-02
    69 0.27860557393170E-02
    70 0.11330307110476E-03
    71 0.20157505774351E-02
    72 0.27001037262495E-04
    73 0.97170436006745E-04
    74 0.00000000000000E+00
    75 0.48314564095334E-03
    76 -.20764732605033E-02
    77 0.00000000000000E+00
    78 0.59111080905576E-04
    79 -.67086833362464E-04
    80 0.79757524568872E-05
    81 -.10092284479508E-03
    82 0.00000000000000E+00
    83 0.00000000000000E+00
    84 -.31902236421292E-03
    85 -.15912153534893E-02
    86 0.51145244088310E-03
    87 0.30350996665444E-03
    88 -.47154338281471E-04
    89 0.75754928667513E-04
    90 0.36415210133990E-04
    91 0.00000000000000E+00
    92 -.16227990682230E-03
    93 0.45095988821071E-03
    94 0.00000000000000E+00
    95 -.13582863892757E-04
    96 -.22618884640906E-04
    97 0.36201748533663E-04
    98 0.57929677404316E-04
    99 0.00000000000000E+00
   100 0.00000000000000E+00
   101 0.11724820916570E-04
   102 0.51837213939712E-04
   103 0.30014083928903E-04
   104 -.25145327816486E-03
   105 0.27860585291920E-02
   106 0.11330274944850E-03
   107 0.20157486851591E-02
   108 -.27000801684445E-04
   109 -.97170541043534E-04
   110 0.00000000000000E+00
   111 -.48314631368208E-03
   112 0.20764760232569E-02
   113 0.00000000000000E+00
   114 0.59111115609109E-04
   115 -.67086847099011E-04
   116 0.79757314899018E-05
   117 -.10092288555609E-03
   118 0.00000000000000E+00
   119 0.00000000000000E+00
   120 -.31902285732008E-03
   121 -.15912165081071E-02
   122 0.51145303494949E-03
   123 0.30351026194583E-03
   124 -.47152320707891E-04
   125 -.75755082273721E-04
   126 -.36415202594797E-04
   127 0.00000000000000E+00
   128 0.16227941833304E-03
   129 -.45096023416118E-03
   130 0.00000000000000E+00
   131 -.13582851828163E-04
   132 -.22618914143887E-04
   133 0.36201765972050E-04
   134 0.57929723515469E-04
   135 0.00000000000000E+00
   136 0.00000000000000E+00
   137 0.11724801252252E-04
   138 0.51837203319021E-04
   139 0.30014108463331E-04
   140 -.25145396129831E-03
 Sym=     2a'  
 Ene= -.11242868773972E+02
 Spin= Alpha
 Occup= 1.000000
     1 0.68730186682241E+00
     2 0.25525503864852E-01
     3 -.20578003954894E-01
     4 -.46383237830484E-03
     5 -.53197798356467E-03
     6 0.00000000000000E+00
     7 -.77451433944128E-03
     8 -.11510156607798E-02
     9 0.00000000000000E+00
    10 0.65158032344126E-03
    11 0.52072948163894E-05
    12 -.65678761825765E-03
    13 0.23428737950021E-03
    14 0.00000000000000E+00
    15 0.00000000000000E+00
    16 -.70654792506360E-03
    17 0.52882279147277E-02
    18 0.13524202051337E+00
    19 0.30870240176635E-02
    20 0.39832272198261E-02
    21 0.91847971542340E-03
    22 -.56803807342390E-03
    23 0.00000000000000E+00
    24 0.27119006206693E-03
    25 0.14184760377125E-02
    26 0.00000000000000E+00
    27 -.10970042091060E-03
    28 -.51489659150883E-04
    29 0.16119008006149E-03
    30 0.10824448212176E-03
    31 0.00000000000000E+00
    32 0.00000000000000E+00
    33 -.19496254611116E-03
    34 0.10349581277079E-02
    35 -.68730273415819E+00
    36 -.25525532600925E-01
    37 0.20578014433287E-01
    38 -.46383138307051E-03
    39 -.53197771382870E-03
    40 0.00000000000000E+00
    41 -.77451309116725E-03
    42 -.11510148712119E-02
    43 0.00000000000000E+00
    44 -.65158060163201E-03
    45 -.52073046777523E-05
    46 0.65678790630976E-03
    47 -.23428691820916E-03
    48 0.00000000000000E+00
    49 0.00000000000000E+00
    50 0.70654976952057E-03
    51 -.52882320339214E-02
    52 -.13524220419723E+00
    53 -.30870286021624E-02
    54 -.39832271498090E-02
    55 0.91848080772704E-03
    56 -.56803836709882E-03
    57 0.00000000000000E+00
    58 0.27119050147445E-03
    59 0.14184718332615E-02
    60 0.00000000000000E+00
    61 0.10970047460922E-03
    62 0.51489711712316E-04
    63 -.16119018632154E-03
    64 -.10824468391900E-03
    65 0.00000000000000E+00
    66 0.00000000000000E+00
    67 0.19496357562796E-03
    68 -.10349567740425E-02
    69 -.31015637659878E-02
    70 0.28313585384591E-03
    71 0.11698177064939E-02
    72 0.21430638770243E-03
    73 -.62224017142387E-04
    74 0.00000000000000E+00
    75 -.49826321537856E-03
    76 0.21549633613428E-02
    77 0.00000000000000E+00
    78 -.16453070218894E-04
    79 0.10761606598988E-04
    80 0.56914636199066E-05
    81 0.46986470007448E-04
    82 0.00000000000000E+00
    83 0.00000000000000E+00
    84 0.39642176414781E-03
    85 0.93481018203357E-03
    86 -.50970220608978E-03
    87 -.22232426433343E-03
    88 -.14954427692852E-02
    89 -.11814933611215E-03
    90 0.11316713063973E-04
    91 0.00000000000000E+00
    92 -.38071963027205E-03
    93 -.36586741449517E-03
    94 0.00000000000000E+00
    95 -.10459906848253E-04
    96 0.21874750652421E-04
    97 -.11414843804168E-04
    98 -.36455727300304E-04
    99 0.00000000000000E+00
   100 0.00000000000000E+00
   101 0.50721107191748E-06
   102 -.22878967184099E-04
   103 -.47658183829064E-05
   104 0.57738100943621E-03
   105 0.31015589741777E-02
   106 -.28313595759377E-03
   107 -.11698205600579E-02
   108 0.21430637605612E-03
   109 -.62223925297811E-04
   110 0.00000000000000E+00
   111 -.49826268850881E-03
   112 0.21549607508355E-02
   113 0.00000000000000E+00
   114 0.16453013192584E-04
   115 -.10761522937481E-04
   116 -.56914902551037E-05
   117 -.46986320921887E-04
   118 0.00000000000000E+00
   119 0.00000000000000E+00
   120 -.39642134741979E-03
   121 -.93480816804488E-03
   122 0.50970150037579E-03
   123 0.22232389498041E-03
   124 0.14954429355407E-02
   125 -.11814924230794E-03
   126 0.11316750977701E-04
   127 0.00000000000000E+00
   128 -.38071983679639E-03
   129 -.36586671069014E-03
   130 0.00000000000000E+00
   131 0.10459922665424E-04
   132 -.21874723863117E-04
   133 0.11414801197694E-04
   134 0.36455654231231E-04
   135 0.00000000000000E+00
   136 0.00000000000000E+00
   137 -.50724703727524E-06
   138 0.22878863269021E-04
   139 0.47658018773011E-05
   140 -.57738063113763E-03
 Sym=     1a'  
 Ene= -.11241423423884E+02
 Spin= Beta
 Occup= 1.000000
     1 0.69999944829443E+00
     2 0.23426019806392E-01
     3 -.93445508599956E-02
     4 0.10290561826523E-02
     5 0.13271227222491E-03
     6 0.00000000000000E+00
     7 0.11730554897426E-02
     8 0.13280622042623E-03
     9 0.00000000000000E+00
    10 0.28919468189279E-03
    11 0.40823829860659E-04
    12 -.33001851175345E-03
    13 -.41139843757818E-03
    14 0.00000000000000E+00
    15 0.00000000000000E+00
    16 -.13795506513269E-02
    17 0.36614396851102E-02
    18 0.23899242389086E-01
    19 -.11167023450803E-02
    20 0.28882015353520E-02
    21 0.95958601175269E-03
    22 -.32201373671996E-03
    23 0.00000000000000E+00
    24 0.35121019538875E-03
    25 -.34428927343063E-02
    26 0.00000000000000E+00
    27 -.11327872537299E-03
    28 -.95555411953919E-05
    29 0.12283426656838E-03
    30 0.16647415921587E-03
    31 0.00000000000000E+00
    32 0.00000000000000E+00
    33 -.65687812097518E-03
    34 -.18922302123626E-02
    35 0.70000265408961E+00
    36 0.23426138969850E-01
    37 -.93446496487487E-02
    38 -.10290548310056E-02
    39 -.13270928448545E-03
    40 0.00000000000000E+00
    41 -.11730517272451E-02
    42 -.13280140097640E-03
    43 0.00000000000000E+00
    44 0.28919818715848E-03
    45 0.40824030269287E-04
    46 -.33002221742776E-03
    47 -.41139753119703E-03
    48 0.00000000000000E+00
    49 0.00000000000000E+00
    50 -.13795539366410E-02
    51 0.36614639098685E-02
    52 0.23899349422867E-01
    53 -.11167076881918E-02
    54 0.28882333775376E-02
    55 -.95959046967487E-03
    56 0.32201670835495E-03
    57 0.00000000000000E+00
    58 -.35121216166642E-03
    59 0.34428863626255E-02
    60 0.00000000000000E+00
    61 -.11327947562404E-03
    62 -.95556747968156E-05
    63 0.12283515042085E-03
    64 0.16647476069068E-03
    65 0.00000000000000E+00
    66 0.00000000000000E+00
    67 -.65687813394386E-03
    68 -.18922291527620E-02
    69 0.23386121517931E-01
    70 0.10273267334135E-02
    71 0.82079747640077E-03
    72 0.11844869450056E-03
    73 0.15803334658032E-03
    74 0.00000000000000E+00
    75 0.53306068390677E-03
    76 -.19791854993689E-02
    77 0.00000000000000E+00
    78 0.10731983762067E-03
    79 -.71885343998290E-04
    80 -.35434493622380E-04
    81 -.62283038309747E-04
    82 0.00000000000000E+00
    83 0.00000000000000E+00
    84 -.30482427466591E-03
    85 -.13686997274651E-02
    86 0.80878584325771E-03
    87 0.25663740619810E-03
    88 0.25363487238958E-03
    89 0.36313285744960E-04
    90 0.68938265587618E-04
    91 0.00000000000000E+00
    92 -.13225544782926E-03
    93 0.20372218109784E-03
    94 0.00000000000000E+00
    95 -.20010398541903E-04
    96 -.25555192623274E-04
    97 0.45565591165176E-04
    98 0.61308527005746E-04
    99 0.00000000000000E+00
   100 0.00000000000000E+00
   101 -.21208287485036E-04
   102 -.25477070138814E-04
   103 0.64530823953170E-04
   104 -.14516736411605E-03
   105 0.23386076829566E-01
   106 0.10273258965486E-02
   107 0.82080891244985E-03
   108 -.11844917778463E-03
   109 -.15803274458740E-03
   110 0.00000000000000E+00
   111 -.53305820284195E-03
   112 0.19791756878081E-02
   113 0.00000000000000E+00
   114 0.10731954846597E-03
   115 -.71885273248616E-04
   116 -.35434275217358E-04
   117 -.62283048270130E-04
   118 0.00000000000000E+00
   119 0.00000000000000E+00
   120 -.30482261000956E-03
   121 -.13686963022167E-02
   122 0.80878373557405E-03
   123 0.25663641539117E-03
   124 0.25362652016329E-03
   125 -.36312802785514E-04
   126 -.68938192786394E-04
   127 0.00000000000000E+00
   128 0.13225726358981E-03
   129 -.20372197143774E-03
   130 0.00000000000000E+00
   131 -.20010421957524E-04
   132 -.25555072310210E-04
   133 0.45565494267734E-04
   134 0.61308355458428E-04
   135 0.00000000000000E+00
   136 0.00000000000000E+00
   137 -.21208065953122E-04
   138 -.25476674696721E-04
   139 0.64530590102766E-04
   140 -.14516537399666E-03
 Sym=     2a'  
 Ene= -.11240852020594E+02
 Spin= Beta
 Occup= 1.000000
     1 -.29332927314440E-01
     2 -.93367229772694E-03
     3 0.58244918339407E-02
     4 -.69314677455965E-04
     5 0.17667011858173E-03
     6 0.00000000000000E+00
     7 0.26355081375498E-03
     8 -.26200428949873E-02
     9 0.00000000000000E+00
    10 -.21638282377772E-04
    11 -.49293019059264E-04
    12 0.70931301437036E-04
    13 -.68001277602699E-04
    14 0.00000000000000E+00
    15 0.00000000000000E+00
    16 0.39176832206017E-03
    17 0.42193560094569E-03
    18 -.13736005588712E-01
    19 0.10132374857932E-02
    20 -.89995512610516E-02
    21 0.63227298643496E-03
    22 0.41987100408494E-03
    23 0.00000000000000E+00
    24 0.12523244181924E-02
    25 0.15812803335890E-03
    26 0.00000000000000E+00
    27 0.21454031365218E-03
    28 0.79723108512266E-05
    29 -.22251262450340E-03
    30 0.34323752357910E-03
    31 0.00000000000000E+00
    32 0.00000000000000E+00
    33 0.36075059261562E-03
    34 0.11148175712608E-02
    35 0.29334112978282E-01
    36 0.93370097356988E-03
    37 -.58244620813146E-02
    38 -.69323629274719E-04
    39 0.17665985576771E-03
    40 0.00000000000000E+00
    41 0.26352548267293E-03
    42 -.26198975720257E-02
    43 0.00000000000000E+00
    44 0.21636764293942E-04
    45 0.49293831272658E-04
    46 -.70930595566599E-04
    47 0.68000795917510E-04
    48 0.00000000000000E+00
    49 0.00000000000000E+00
    50 -.39175266754538E-03
    51 -.42184917857310E-03
    52 0.13735318595865E-01
    53 -.10131901992896E-02
    54 0.89991509351801E-02
    55 0.63223328021914E-03
    56 0.41984681953882E-03
    57 0.00000000000000E+00
    58 0.12523055760660E-02
    59 0.15811428751198E-03
    60 0.00000000000000E+00
    61 -.21452706637901E-03
    62 -.79720217054880E-05
    63 0.22249908808450E-03
    64 -.34321910714202E-03
    65 0.00000000000000E+00
    66 0.00000000000000E+00
    67 -.36073192934340E-03
    68 -.11147741022209E-02
    69 0.69942025596332E+00
    70 0.25395521661869E-01
    71 -.19808621995986E-01
    72 -.85124077240508E-04
    73 0.30269117742141E-03
    74 0.00000000000000E+00
    75 0.40284440800969E-03
    76 -.87880204771511E-03
    77 0.00000000000000E+00
    78 0.40926023956063E-03
    79 -.32874759874833E-04
    80 -.37638547968579E-03
    81 -.10090670270189E-03
    82 0.00000000000000E+00
    83 0.00000000000000E+00
    84 -.11653782295751E-02
    85 0.44360813420362E-02
    86 0.19930846818139E-01
    87 -.13486989920537E-02
    88 0.72003633376650E-02
    89 -.10641328206258E-02
    90 0.51545804332715E-03
    91 0.00000000000000E+00
    92 0.22098487425744E-02
    93 -.21438816800398E-03
    94 0.00000000000000E+00
    95 -.11069307706254E-03
    96 -.20051178320036E-04
    97 0.13074425538257E-03
    98 0.12196417244749E-03
    99 0.00000000000000E+00
   100 0.00000000000000E+00
   101 0.14216887725617E-03
   102 -.24162454673944E-03
   103 -.16301893700777E-03
   104 -.56982536785073E-03
   105 -.69946029094560E+00
   106 -.25396975891387E-01
   107 0.19809751611382E-01
   108 -.85128853966318E-04
   109 0.30270739087469E-03
   110 0.00000000000000E+00
   111 0.40285610555585E-03
   112 -.87884456557122E-03
   113 0.00000000000000E+00
   114 -.40928348210222E-03
   115 0.32876789385475E-04
   116 0.37640669271674E-03
   117 0.10091285188782E-03
   118 0.00000000000000E+00
   119 0.00000000000000E+00
   120 0.11654440425235E-02
   121 -.44363432713302E-02
   122 -.19931986342903E-01
   123 0.13487764051277E-02
   124 -.72007621405917E-02
   125 -.10641934186252E-02
   126 0.51548759497413E-03
   127 0.00000000000000E+00
   128 0.22099621957661E-02
   129 -.21439963755332E-03
   130 0.00000000000000E+00
   131 0.11069976958345E-03
   132 0.20052284673594E-04
   133 -.13075205425704E-03
   134 -.12197121085765E-03
   135 0.00000000000000E+00
   136 0.00000000000000E+00
   137 -.14217610984608E-03
   138 0.24164260456225E-03
   139 0.16302693218102E-03
   140 0.56986078474556E-03
 Sym=     3a'  
 Ene= -.11240851483320E+02
 Spin= Beta
 Occup= 1.000000
     1 -.23886171829443E-01
     2 -.60687882903779E-03
     3 -.47757463165175E-03
     4 -.16117056169925E-03
     5 -.17997667761004E-03
     6 0.00000000000000E+00
     7 -.44787811609902E-03
     8 0.25395343029112E-02
     9 0.00000000000000E+00
    10 0.25207448055291E-04
    11 -.14401493765412E-04
    12 -.10805954289880E-04
    13 0.10274270771817E-04
    14 0.00000000000000E+00
    15 0.00000000000000E+00
    16 -.26741292233462E-03
    17 -.15271427822828E-02
    18 0.11903870728657E-01
    19 -.82133528526655E-03
    20 0.69838962951458E-02
    21 -.69836243535804E-03
    22 -.42127553127098E-03
    23 0.00000000000000E+00
    24 -.33099876205998E-03
    25 -.22488676387186E-03
    26 0.00000000000000E+00
    27 -.23104639582807E-03
    28 -.50031048115165E-05
    29 0.23604950063958E-03
    30 -.32267176359149E-03
    31 0.00000000000000E+00
    32 0.00000000000000E+00
    33 -.32327757030664E-03
    34 -.75124789087819E-03
    35 -.23884904257131E-01
    36 -.60684065862066E-03
    37 -.47789541672771E-03
    38 0.16116642458366E-03
    39 0.17998640639694E-03
    40 0.00000000000000E+00
    41 0.44789270417312E-03
    42 -.25396849121054E-02
    43 0.00000000000000E+00
    44 0.25208233732612E-04
    45 -.14398700429557E-04
    46 -.10809533303054E-04
    47 0.10278047529348E-04
    48 0.00000000000000E+00
    49 0.00000000000000E+00
    50 -.26743492817569E-03
    51 -.15271700377785E-02
    52 0.11904643334678E-01
    53 -.82139259697179E-03
    54 0.69844073800273E-02
    55 0.69839920105982E-03
    56 0.42129918482815E-03
    57 0.00000000000000E+00
    58 0.33107071084908E-03
    59 0.22489663393656E-03
    60 0.00000000000000E+00
    61 -.23105858049206E-03
    62 -.50035438962185E-05
    63 0.23606212438828E-03
    64 -.32269148968388E-03
    65 0.00000000000000E+00
    66 0.00000000000000E+00
    67 -.32329821962155E-03
    68 -.75131184356625E-03
    69 0.69970154990630E+00
    70 0.25415367854305E-01
    71 -.19749197801131E-01
    72 -.83766655699315E-04
    73 0.28273928510198E-03
    74 0.00000000000000E+00
    75 0.20194037970304E-03
    76 -.73430243989681E-03
    77 0.00000000000000E+00
    78 0.40575668977134E-03
    79 -.35177778241437E-04
    80 -.37057891152991E-03
    81 -.10718664885733E-03
    82 0.00000000000000E+00
    83 0.00000000000000E+00
    84 -.11490293923249E-02
    85 0.45846607878510E-02
    86 0.19918368136137E-01
    87 -.13541850098311E-02
    88 0.69698089439933E-02
    89 -.10593735508449E-02
    90 0.51622160274153E-03
    91 0.00000000000000E+00
    92 0.19838080484428E-02
    93 -.20133767523166E-03
    94 0.00000000000000E+00
    95 -.11688512688330E-03
    96 -.19231821177862E-04
    97 0.13611694806116E-03
    98 0.12273393206797E-03
    99 0.00000000000000E+00
   100 0.00000000000000E+00
   101 0.12653112956586E-03
   102 -.31548884384251E-03
   103 -.14007243425615E-03
   104 -.61842967015083E-03
   105 0.69966151733233E+00
   106 0.25413914181185E-01
   107 -.19748065318902E-01
   108 0.83761860211913E-04
   109 -.28272203226736E-03
   110 0.00000000000000E+00
   111 -.20191765351893E-03
   112 0.73425338976899E-03
   113 0.00000000000000E+00
   114 0.40573330092296E-03
   115 -.35175903908539E-04
   116 -.37055739701442E-03
   117 -.10718087223775E-03
   118 0.00000000000000E+00
   119 0.00000000000000E+00
   120 -.11489628942259E-02
   121 0.45844064049121E-02
   122 0.19917227280127E-01
   123 -.13541076843279E-02
   124 0.69693978390681E-02
   125 0.10593125746381E-02
   126 -.51619210624226E-03
   127 0.00000000000000E+00
   128 -.19836817758044E-02
   129 0.20132538202478E-03
   130 0.00000000000000E+00
   131 -.11687878776801E-03
   132 -.19230688299161E-04
   133 0.13610947606717E-03
   134 0.12272697338553E-03
   135 0.00000000000000E+00
   136 0.00000000000000E+00
   137 0.12652296182428E-03
   138 -.31547506598970E-03
   139 -.14006307046678E-03
   140 -.61839730513872E-03
 Sym=     4a'  
 Ene= -.11240583207484E+02
 Spin= Beta
 Occup= 1.000000
     1 0.69955145264842E+00
     2 0.25959153888592E-01
     3 -.21218273740160E-01
     4 -.29093457701123E-03
     5 -.64552539274100E-03
     6 0.00000000000000E+00
     7 -.81032362333352E-03
     8 -.12017317146476E-02
     9 0.00000000000000E+00
    10 0.77153794985805E-03
    11 0.47996651365568E-04
    12 -.81953460122362E-03
    13 0.19301917741311E-03
    14 0.00000000000000E+00
    15 0.00000000000000E+00
    16 -.69627992695191E-03
    17 0.53102631162080E-02
    18 0.23295726346508E-01
    19 -.10885283586145E-02
    20 0.64117412171880E-02
    21 0.10118062906743E-02
    22 -.62588272963706E-03
    23 0.00000000000000E+00
    24 0.49982090738517E-03
    25 0.13928720775714E-02
    26 0.00000000000000E+00
    27 -.15184987581755E-03
    28 -.28072670382938E-04
    29 0.17992254620049E-03
    30 0.15113181686873E-03
    31 0.00000000000000E+00
    32 0.00000000000000E+00
    33 0.16029692379238E-04
    34 0.29821534077437E-03
    35 -.69954823842868E+00
    36 -.25959046652777E-01
    37 0.21218231382649E-01
    38 -.29093940708608E-03
    39 -.64552608857398E-03
    40 0.00000000000000E+00
    41 -.81032919649169E-03
    42 -.12017308626975E-02
    43 0.00000000000000E+00
    44 -.77153661132372E-03
    45 -.47996426500839E-04
    46 0.81953303782456E-03
    47 -.19302106384324E-03
    48 0.00000000000000E+00
    49 0.00000000000000E+00
    50 0.69627378105990E-03
    51 -.53102455270149E-02
    52 -.23295620958293E-01
    53 0.10885238491792E-02
    54 -.64117321785384E-02
    55 0.10118014955091E-02