[Molden Format]
[Title]
                                                                                
[Atoms] AU
 c     1    6 0.11877279956095E+01 0.66276382310378E+00 0.00000000000000E+00
 c     2    6 0.34828176602270E+01 -.47654043674931E+00 0.00000000000000E+00
 c     3    6 -.11877279948526E+01 -.66276381019826E+00 0.00000000000000E+00
 c     4    6 -.34828176617476E+01 0.47654044500037E+00 0.00000000000000E+00
 c     5    6 -.58644776632888E+01 -.86324606083038E+00 0.00000000000000E+00
 c     6    6 -.81470280591620E+01 0.25401873232000E+00 0.00000000000000E+00
 c     7    6 0.58644776666427E+01 0.86324606049683E+00 0.00000000000000E+00
 c     8    6 0.81470280573536E+01 -.25401874321454E+00 0.00000000000000E+00
 h     9  100 0.16355829543100E+01 0.44044437732900E+00 -.25000000000000E+00
 h    10  100 0.16355829543100E+01 0.44044437732900E+00 0.25000000000000E+00
 h    11  100 0.77126622846400E+00 0.38606977454800E+00 -.25000000000000E+00
 h    12  100 0.77126622846400E+00 0.38606977454800E+00 0.25000000000000E+00
 h    13  100 0.11563348040600E+01 0.11617773174300E+01 -.25000000000000E+00
 h    14  100 0.11563348040600E+01 0.11617773174300E+01 0.25000000000000E+00
 h    15  100 0.30349627015300E+01 -.25422099097500E+00 -.25000000000000E+00
 h    16  100 0.30349627015300E+01 -.25422099097500E+00 0.25000000000000E+00
 h    17  100 0.38992794273700E+01 -.19984638819300E+00 -.25000000000000E+00
 h    18  100 0.38992794273700E+01 -.19984638819300E+00 0.25000000000000E+00
 h    19  100 0.35142108517800E+01 -.97555393108000E+00 -.25000000000000E+00
 h    20  100 0.35142108517800E+01 -.97555393108000E+00 0.25000000000000E+00
 h    21  100 -.16355829540000E+01 -.44044436532900E+00 -.25000000000000E+00
 h    22  100 -.16355829540000E+01 -.44044436532900E+00 0.25000000000000E+00
 h    23  100 -.77126622826700E+00 -.38606976080000E+00 -.25000000000000E+00
 h    24  100 -.77126622826700E+00 -.38606976080000E+00 0.25000000000000E+00
 h    25  100 -.11563348022900E+01 -.11617773044700E+01 -.25000000000000E+00
 h    26  100 -.11563348022900E+01 -.11617773044700E+01 0.25000000000000E+00
 h    27  100 -.30349627026000E+01 0.25422100013100E+00 -.25000000000000E+00
 h    28  100 -.30349627026000E+01 0.25422100013100E+00 0.25000000000000E+00
 h    29  100 -.38992794283300E+01 0.19984639560200E+00 -.25000000000000E+00
 h    30  100 -.38992794283300E+01 0.19984639560200E+00 0.25000000000000E+00
 h    31  100 -.35142108543100E+01 0.97555393926800E+00 -.25000000000000E+00
 h    32  100 -.35142108543100E+01 0.97555393926800E+00 0.25000000000000E+00
 h    33  100 -.63135648900100E+01 -.64342644660700E+00 -.25000000000000E+00
 h    34  100 -.63135648900100E+01 -.64342644660700E+00 0.25000000000000E+00
 h    35  100 -.54495646797600E+01 -.58423492108800E+00 -.25000000000000E+00
 h    36  100 -.54495646797600E+01 -.58423492108800E+00 0.25000000000000E+00
 h    37  100 -.58303034201000E+01 -.13620768148000E+01 -.25000000000000E+00
 h    38  100 -.58303034201000E+01 -.13620768148000E+01 0.25000000000000E+00
 h    39  100 -.76979408324400E+01 0.34199118096200E-01 -.25000000000000E+00
 h    40  100 -.76979408324400E+01 0.34199118096200E-01 0.25000000000000E+00
 h    41  100 -.85619410426900E+01 -.24992407422200E-01 -.25000000000000E+00
 h    42  100 -.85619410426900E+01 -.24992407422200E-01 0.25000000000000E+00
 h    43  100 -.81812023023500E+01 0.75284948628600E+00 -.25000000000000E+00
 h    44  100 -.81812023023500E+01 0.75284948628600E+00 0.25000000000000E+00
 h    45  100 0.63135648923500E+01 0.64342644419600E+00 -.25000000000000E+00
 h    46  100 0.63135648923500E+01 0.64342644419600E+00 0.25000000000000E+00
 h    47  100 0.54495646818200E+01 0.58423492267400E+00 -.25000000000000E+00
 h    48  100 0.54495646818200E+01 0.58423492267400E+00 0.25000000000000E+00
 h    49  100 0.58303034257600E+01 0.13620768146200E+01 -.25000000000000E+00
 h    50  100 0.58303034257600E+01 0.13620768146200E+01 0.25000000000000E+00
 h    51  100 0.76979408316500E+01 -.34199126913500E-01 -.25000000000000E+00
 h    52  100 0.76979408316500E+01 -.34199126913500E-01 0.25000000000000E+00
 h    53  100 0.85619410421700E+01 0.24992394608500E-01 -.25000000000000E+00
 h    54  100 0.85619410421700E+01 0.24992394608500E-01 0.25000000000000E+00
 h    55  100 0.81812022982400E+01 -.75284949733900E+00 -.25000000000000E+00
 h    56  100 0.81812022982400E+01 -.75284949733900E+00 0.25000000000000E+00
[GTO]
    1 0
 s    5 1.00
 0.12384016938000E+04 0.55173650481097E-02
 0.18629004992000E+03 0.41088828555946E-01
 0.42251176346000E+02 0.18225382126490E+00
 0.11676557932000E+02 0.46828459437429E+00
 0.35930506482000E+01 0.44575817336002E+00
 s    1 1.00
 0.40245147363000E+00 0.10000000000000E+01
 s    1 1.00
 0.13090182668000E+00 0.10000000000000E+01
 p    3 1.00
 0.94680970621000E+01 0.56888332011037E-01
 0.20103545142000E+01 0.31294059336471E+00
 0.54771004707000E+00 0.76065016509135E+00
 p    1 1.00
 0.15268613795000E+00 0.10000000000000E+01
 d    1 1.00
 0.80000000000000E+00 0.10000000000000E+01
 
    2 0
 s    5 1.00
 0.12384016938000E+04 0.55173650481097E-02
 0.18629004992000E+03 0.41088828555946E-01
 0.42251176346000E+02 0.18225382126490E+00
 0.11676557932000E+02 0.46828459437429E+00
 0.35930506482000E+01 0.44575817336002E+00
 s    1 1.00
 0.40245147363000E+00 0.10000000000000E+01
 s    1 1.00
 0.13090182668000E+00 0.10000000000000E+01
 p    3 1.00
 0.94680970621000E+01 0.56888332011037E-01
 0.20103545142000E+01 0.31294059336471E+00
 0.54771004707000E+00 0.76065016509135E+00
 p    1 1.00
 0.15268613795000E+00 0.10000000000000E+01
 d    1 1.00
 0.80000000000000E+00 0.10000000000000E+01
 
    3 0
 s    5 1.00
 0.12384016938000E+04 0.55173650481097E-02
 0.18629004992000E+03 0.41088828555946E-01
 0.42251176346000E+02 0.18225382126490E+00
 0.11676557932000E+02 0.46828459437429E+00
 0.35930506482000E+01 0.44575817336002E+00
 s    1 1.00
 0.40245147363000E+00 0.10000000000000E+01
 s    1 1.00
 0.13090182668000E+00 0.10000000000000E+01
 p    3 1.00
 0.94680970621000E+01 0.56888332011037E-01
 0.20103545142000E+01 0.31294059336471E+00
 0.54771004707000E+00 0.76065016509135E+00
 p    1 1.00
 0.15268613795000E+00 0.10000000000000E+01
 d    1 1.00
 0.80000000000000E+00 0.10000000000000E+01
 
    4 0
 s    5 1.00
 0.12384016938000E+04 0.55173650481097E-02
 0.18629004992000E+03 0.41088828555946E-01
 0.42251176346000E+02 0.18225382126490E+00
 0.11676557932000E+02 0.46828459437429E+00
 0.35930506482000E+01 0.44575817336002E+00
 s    1 1.00
 0.40245147363000E+00 0.10000000000000E+01
 s    1 1.00
 0.13090182668000E+00 0.10000000000000E+01
 p    3 1.00
 0.94680970621000E+01 0.56888332011037E-01
 0.20103545142000E+01 0.31294059336471E+00
 0.54771004707000E+00 0.76065016509135E+00
 p    1 1.00
 0.15268613795000E+00 0.10000000000000E+01
 d    1 1.00
 0.80000000000000E+00 0.10000000000000E+01
 
    5 0
 s    5 1.00
 0.12384016938000E+04 0.55173650481097E-02
 0.18629004992000E+03 0.41088828555946E-01
 0.42251176346000E+02 0.18225382126490E+00
 0.11676557932000E+02 0.46828459437429E+00
 0.35930506482000E+01 0.44575817336002E+00
 s    1 1.00
 0.40245147363000E+00 0.10000000000000E+01
 s    1 1.00
 0.13090182668000E+00 0.10000000000000E+01
 p    3 1.00
 0.94680970621000E+01 0.56888332011037E-01
 0.20103545142000E+01 0.31294059336471E+00
 0.54771004707000E+00 0.76065016509135E+00
 p    1 1.00
 0.15268613795000E+00 0.10000000000000E+01
 d    1 1.00
 0.80000000000000E+00 0.10000000000000E+01
 
    6 0
 s    5 1.00
 0.12384016938000E+04 0.55173650481097E-02
 0.18629004992000E+03 0.41088828555946E-01
 0.42251176346000E+02 0.18225382126490E+00
 0.11676557932000E+02 0.46828459437429E+00
 0.35930506482000E+01 0.44575817336002E+00
 s    1 1.00
 0.40245147363000E+00 0.10000000000000E+01
 s    1 1.00
 0.13090182668000E+00 0.10000000000000E+01
 p    3 1.00
 0.94680970621000E+01 0.56888332011037E-01
 0.20103545142000E+01 0.31294059336471E+00
 0.54771004707000E+00 0.76065016509135E+00
 p    1 1.00
 0.15268613795000E+00 0.10000000000000E+01
 d    1 1.00
 0.80000000000000E+00 0.10000000000000E+01
 
    7 0
 s    5 1.00
 0.12384016938000E+04 0.55173650481097E-02
 0.18629004992000E+03 0.41088828555946E-01
 0.42251176346000E+02 0.18225382126490E+00
 0.11676557932000E+02 0.46828459437429E+00
 0.35930506482000E+01 0.44575817336002E+00
 s    1 1.00
 0.40245147363000E+00 0.10000000000000E+01
 s    1 1.00
 0.13090182668000E+00 0.10000000000000E+01
 p    3 1.00
 0.94680970621000E+01 0.56888332011037E-01
 0.20103545142000E+01 0.31294059336471E+00
 0.54771004707000E+00 0.76065016509135E+00
 p    1 1.00
 0.15268613795000E+00 0.10000000000000E+01
 d    1 1.00
 0.80000000000000E+00 0.10000000000000E+01
 
    8 0
 s    5 1.00
 0.12384016938000E+04 0.55173650481097E-02
 0.18629004992000E+03 0.41088828555946E-01
 0.42251176346000E+02 0.18225382126490E+00
 0.11676557932000E+02 0.46828459437429E+00
 0.35930506482000E+01 0.44575817336002E+00
 s    1 1.00
 0.40245147363000E+00 0.10000000000000E+01
 s    1 1.00
 0.13090182668000E+00 0.10000000000000E+01
 p    3 1.00
 0.94680970621000E+01 0.56888332011037E-01
 0.20103545142000E+01 0.31294059336471E+00
 0.54771004707000E+00 0.76065016509135E+00
 p    1 1.00
 0.15268613795000E+00 0.10000000000000E+01
 d    1 1.00
 0.80000000000000E+00 0.10000000000000E+01
 
    9 0
 
   10 0
 
   11 0
 
   12 0
 
   13 0
 
   14 0
 
   15 0
 
   16 0
 
   17 0
 
   18 0
 
   19 0
 
   20 0
 
   21 0
 
   22 0
 
   23 0
 
   24 0
 
   25 0
 
   26 0
 
   27 0
 
   28 0
 
   29 0
 
   30 0
 
   31 0
 
   32 0
 
   33 0
 
   34 0
 
   35 0
 
   36 0
 
   37 0
 
   38 0
 
   39 0
 
   40 0
 
   41 0
 
   42 0
 
   43 0
 
   44 0
 
   45 0
 
   46 0
 
   47 0
 
   48 0
 
   49 0
 
   50 0
 
   51 0
 
   52 0
 
   53 0
 
   54 0
 
   55 0
 
   56 0
 
[MO]
 Sym=     1a"  
 Ene= -.39338090547425E+00
 Spin= Alpha
 Occup= 2.000000
     1 0.00000000000000E+00
     2 0.00000000000000E+00
     3 0.00000000000000E+00
     4 0.00000000000000E+00
     5 0.00000000000000E+00
     6 0.28649890685196E+00
     7 0.00000000000000E+00
     8 0.00000000000000E+00
     9 0.13266248679748E+00
    10 0.00000000000000E+00
    11 0.00000000000000E+00
    12 0.00000000000000E+00
    13 0.00000000000000E+00
    14 0.58776468445734E-04
    15 -.80361539821247E-03
    16 0.00000000000000E+00
    17 0.00000000000000E+00
    18 0.00000000000000E+00
    19 0.00000000000000E+00
    20 0.00000000000000E+00
    21 0.25359658897598E+00
    22 0.00000000000000E+00
    23 0.00000000000000E+00
    24 0.11797233862683E+00
    25 0.00000000000000E+00
    26 0.00000000000000E+00
    27 0.00000000000000E+00
    28 0.00000000000000E+00
    29 0.75339699982098E-04
    30 0.72189283266414E-03
    31 0.00000000000000E+00
    32 0.00000000000000E+00
    33 0.00000000000000E+00
    34 0.00000000000000E+00
    35 0.00000000000000E+00
    36 0.28649890680338E+00
    37 0.00000000000000E+00
    38 0.00000000000000E+00
    39 0.13266248678158E+00
    40 0.00000000000000E+00
    41 0.00000000000000E+00
    42 0.00000000000000E+00
    43 0.00000000000000E+00
    44 -.58776468379287E-04
    45 0.80361539353126E-03
    46 0.00000000000000E+00
    47 0.00000000000000E+00
    48 0.00000000000000E+00
    49 0.00000000000000E+00
    50 0.00000000000000E+00
    51 0.25359658877879E+00
    52 0.00000000000000E+00
    53 0.00000000000000E+00
    54 0.11797233851952E+00
    55 0.00000000000000E+00
    56 0.00000000000000E+00
    57 0.00000000000000E+00
    58 0.00000000000000E+00
    59 -.75339698041503E-04
    60 -.72189283460773E-03
    61 0.00000000000000E+00
    62 0.00000000000000E+00
    63 0.00000000000000E+00
    64 0.00000000000000E+00
    65 0.00000000000000E+00
    66 0.17585661270292E+00
    67 0.00000000000000E+00
    68 0.00000000000000E+00
    69 0.80820738922642E-01
    70 0.00000000000000E+00
    71 0.00000000000000E+00
    72 0.00000000000000E+00
    73 0.00000000000000E+00
    74 -.88976294857570E-04
    75 0.50526315185716E-03
    76 0.00000000000000E+00
    77 0.00000000000000E+00
    78 0.00000000000000E+00
    79 0.00000000000000E+00
    80 0.00000000000000E+00
    81 0.10235348247815E+00
    82 0.00000000000000E+00
    83 0.00000000000000E+00
    84 0.48212713634000E-01
    85 0.00000000000000E+00
    86 0.00000000000000E+00
    87 0.00000000000000E+00
    88 0.00000000000000E+00
    89 0.16920144060503E-03
    90 0.16860867907601E-04
    91 0.00000000000000E+00
    92 0.00000000000000E+00
    93 0.00000000000000E+00
    94 0.00000000000000E+00
    95 0.00000000000000E+00
    96 0.17585661288694E+00
    97 0.00000000000000E+00
    98 0.00000000000000E+00
    99 0.80820739007960E-01
   100 0.00000000000000E+00
   101 0.00000000000000E+00
   102 0.00000000000000E+00
   103 0.00000000000000E+00
   104 0.88976293606411E-04
   105 -.50526315483304E-03
   106 0.00000000000000E+00
   107 0.00000000000000E+00
   108 0.00000000000000E+00
   109 0.00000000000000E+00
   110 0.00000000000000E+00
   111 0.10235348262897E+00
   112 0.00000000000000E+00
   113 0.00000000000000E+00
   114 0.48212713710552E-01
   115 0.00000000000000E+00
   116 0.00000000000000E+00
   117 0.00000000000000E+00
   118 0.00000000000000E+00
   119 -.16920144140408E-03
   120 -.16860867204723E-04
 Sym=     2a"  
 Ene= -.35426474440214E+00
 Spin= Alpha
 Occup= 2.000000
     1 0.00000000000000E+00
     2 0.00000000000000E+00
     3 0.00000000000000E+00
     4 0.00000000000000E+00
     5 0.00000000000000E+00
     6 -.11589339399228E+00
     7 0.00000000000000E+00
     8 0.00000000000000E+00
     9 -.60404329575572E-01
    10 0.00000000000000E+00
    11 0.00000000000000E+00
    12 0.00000000000000E+00
    13 0.00000000000000E+00
    14 0.34585262729908E-03
    15 0.38821905734793E-03
    16 0.00000000000000E+00
    17 0.00000000000000E+00
    18 0.00000000000000E+00
    19 0.00000000000000E+00
    20 0.00000000000000E+00
    21 -.24458517639823E+00
    22 0.00000000000000E+00
    23 0.00000000000000E+00
    24 -.12170792414631E+00
    25 0.00000000000000E+00
    26 0.00000000000000E+00
    27 0.00000000000000E+00
    28 0.00000000000000E+00
    29 0.22996610920247E-03
    30 -.80404007304048E-03
    31 0.00000000000000E+00
    32 0.00000000000000E+00
    33 0.00000000000000E+00
    34 0.00000000000000E+00
    35 0.00000000000000E+00
    36 0.11589339431722E+00
    37 0.00000000000000E+00
    38 0.00000000000000E+00
    39 0.60404329739834E-01
    40 0.00000000000000E+00
    41 0.00000000000000E+00
    42 0.00000000000000E+00
    43 0.00000000000000E+00
    44 0.34585262613212E-03
    45 0.38821905828743E-03
    46 0.00000000000000E+00
    47 0.00000000000000E+00
    48 0.00000000000000E+00
    49 0.00000000000000E+00
    50 0.00000000000000E+00
    51 0.24458517659096E+00
    52 0.00000000000000E+00
    53 0.00000000000000E+00
    54 0.12170792423188E+00
    55 0.00000000000000E+00
    56 0.00000000000000E+00
    57 0.00000000000000E+00
    58 0.00000000000000E+00
    59 0.22996611188443E-03
    60 -.80404007560432E-03
    61 0.00000000000000E+00
    62 0.00000000000000E+00
    63 0.00000000000000E+00
    64 0.00000000000000E+00
    65 0.00000000000000E+00
    66 0.28384494578963E+00
    67 0.00000000000000E+00
    68 0.00000000000000E+00
    69 0.14272077227303E+00
    70 0.00000000000000E+00
    71 0.00000000000000E+00
    72 0.00000000000000E+00
    73 0.00000000000000E+00
    74 0.70429634161814E-04
    75 0.96288032269306E-03
    76 0.00000000000000E+00
    77 0.00000000000000E+00
    78 0.00000000000000E+00
    79 0.00000000000000E+00
    80 0.00000000000000E+00
    81 0.20049826078302E+00
    82 0.00000000000000E+00
    83 0.00000000000000E+00
    84 0.10238030617375E+00
    85 0.00000000000000E+00
    86 0.00000000000000E+00
    87 0.00000000000000E+00
    88 0.00000000000000E+00
    89 0.45180730389229E-03
    90 -.62390526308122E-04
    91 0.00000000000000E+00
    92 0.00000000000000E+00
    93 0.00000000000000E+00
    94 0.00000000000000E+00
    95 0.00000000000000E+00
    96 -.28384494580156E+00
    97 0.00000000000000E+00
    98 0.00000000000000E+00
    99 -.14272077228499E+00
   100 0.00000000000000E+00
   101 0.00000000000000E+00
   102 0.00000000000000E+00
   103 0.00000000000000E+00
   104 0.70429637599045E-04
   105 0.96288032517578E-03
   106 0.00000000000000E+00
   107 0.00000000000000E+00
   108 0.00000000000000E+00
   109 0.00000000000000E+00
   110 0.00000000000000E+00
   111 -.20049826087194E+00
   112 0.00000000000000E+00
   113 0.00000000000000E+00
   114 -.10238030622837E+00
   115 0.00000000000000E+00
   116 0.00000000000000E+00
   117 0.00000000000000E+00
   118 0.00000000000000E+00
   119 0.45180730457175E-03
   120 -.62390528371428E-04
 Sym=     3a"  
 Ene= -.29567831357625E+00
 Spin= Alpha
 Occup= 2.000000
     1 0.00000000000000E+00
     2 0.00000000000000E+00
     3 0.00000000000000E+00
     4 0.00000000000000E+00
     5 0.00000000000000E+00
     6 -.23821158587725E+00
     7 0.00000000000000E+00
     8 0.00000000000000E+00
     9 -.13317925240583E+00
    10 0.00000000000000E+00
    11 0.00000000000000E+00
    12 0.00000000000000E+00
    13 0.00000000000000E+00
    14 -.23359585080145E-03
    15 0.93938179805069E-03
    16 0.00000000000000E+00
    17 0.00000000000000E+00
    18 0.00000000000000E+00
    19 0.00000000000000E+00
    20 0.00000000000000E+00
    21 -.37871333448701E-01
    22 0.00000000000000E+00
    23 0.00000000000000E+00
    24 -.24210888234978E-01
    25 0.00000000000000E+00
    26 0.00000000000000E+00
    27 0.00000000000000E+00
    28 0.00000000000000E+00
    29 -.42432083761180E-03
    30 -.13624401146805E-03
    31 0.00000000000000E+00
    32 0.00000000000000E+00
    33 0.00000000000000E+00
    34 0.00000000000000E+00
    35 0.00000000000000E+00
    36 -.23821158566707E+00
    37 0.00000000000000E+00
    38 0.00000000000000E+00
    39 -.13317925228686E+00
    40 0.00000000000000E+00
    41 0.00000000000000E+00
    42 0.00000000000000E+00
    43 0.00000000000000E+00
    44 0.23359585140431E-03
    45 -.93938179317739E-03
    46 0.00000000000000E+00
    47 0.00000000000000E+00
    48 0.00000000000000E+00
    49 0.00000000000000E+00
    50 0.00000000000000E+00
    51 -.37871333142704E-01
    52 0.00000000000000E+00
    53 0.00000000000000E+00
    54 -.24210888056809E-01
    55 0.00000000000000E+00
    56 0.00000000000000E+00
    57 0.00000000000000E+00
    58 0.00000000000000E+00
    59 0.42432083822363E-03
    60 0.13624401077029E-03
    61 0.00000000000000E+00
    62 0.00000000000000E+00
    63 0.00000000000000E+00
    64 0.00000000000000E+00
    65 0.00000000000000E+00
    66 0.27016599849299E+00
    67 0.00000000000000E+00
    68 0.00000000000000E+00
    69 0.15472571569041E+00
    70 0.00000000000000E+00
    71 0.00000000000000E+00
    72 0.00000000000000E+00
    73 0.00000000000000E+00
    74 0.38623145728463E-03
    75 0.10853000636105E-02
    76 0.00000000000000E+00
    77 0.00000000000000E+00
    78 0.00000000000000E+00
    79 0.00000000000000E+00
    80 0.00000000000000E+00
    81 0.27422100673449E+00
    82 0.00000000000000E+00
    83 0.00000000000000E+00
    84 0.15777861218043E+00
    85 0.00000000000000E+00
    86 0.00000000000000E+00
    87 0.00000000000000E+00
    88 0.00000000000000E+00
    89 0.82581315133743E-03
    90 -.27792428526636E-03
    91 0.00000000000000E+00
    92 0.00000000000000E+00
    93 0.00000000000000E+00
    94 0.00000000000000E+00
    95 0.00000000000000E+00
    96 0.27016599844311E+00
    97 0.00000000000000E+00
    98 0.00000000000000E+00
    99 0.15472571567382E+00
   100 0.00000000000000E+00
   101 0.00000000000000E+00
   102 0.00000000000000E+00
   103 0.00000000000000E+00
   104 -.38623146193521E-03
   105 -.10853000632521E-02
   106 0.00000000000000E+00
   107 0.00000000000000E+00
   108 0.00000000000000E+00
   109 0.00000000000000E+00
   110 0.00000000000000E+00
   111 0.27422100678590E+00
   112 0.00000000000000E+00
   113 0.00000000000000E+00
   114 0.15777861221949E+00
   115 0.00000000000000E+00
   116 0.00000000000000E+00
   117 0.00000000000000E+00
   118 0.00000000000000E+00
   119 -.82581315093502E-03
   120 0.27792428912854E-03
 Sym=     4a"  
 Ene= -.22500068165061E+00
 Spin= Alpha
 Occup= 2.000000
     1 0.00000000000000E+00
     2 0.00000000000000E+00
     3 0.00000000000000E+00
     4 0.00000000000000E+00
     5 0.00000000000000E+00
     6 0.23434420779848E+00
     7 0.00000000000000E+00
     8 0.00000000000000E+00
     9 0.15301316306871E+00
    10 0.00000000000000E+00
    11 0.00000000000000E+00
    12 0.00000000000000E+00
    13 0.00000000000000E+00
    14 -.28037803074296E-03
    15 -.10277433740433E-02
    16 0.00000000000000E+00
    17 0.00000000000000E+00
    18 0.00000000000000E+00
    19 0.00000000000000E+00
    20 0.00000000000000E+00
    21 0.28634354015135E+00
    22 0.00000000000000E+00
    23 0.00000000000000E+00
    24 0.18541827709606E+00
    25 0.00000000000000E+00
    26 0.00000000000000E+00
    27 0.00000000000000E+00
    28 0.00000000000000E+00
    29 0.11532272721121E-03
    30 0.12734313066983E-02
    31 0.00000000000000E+00
    32 0.00000000000000E+00
    33 0.00000000000000E+00
    34 0.00000000000000E+00
    35 0.00000000000000E+00
    36 -.23434420792270E+00
    37 0.00000000000000E+00
    38 0.00000000000000E+00
    39 -.15301316314430E+00
    40 0.00000000000000E+00
    41 0.00000000000000E+00
    42 0.00000000000000E+00
    43 0.00000000000000E+00
    44 -.28037802914154E-03
    45 -.10277433743453E-02
    46 0.00000000000000E+00
    47 0.00000000000000E+00
    48 0.00000000000000E+00
    49 0.00000000000000E+00
    50 0.00000000000000E+00
    51 -.28634354021193E+00
    52 0.00000000000000E+00
    53 0.00000000000000E+00
    54 -.18541827712810E+00
    55 0.00000000000000E+00
    56 0.00000000000000E+00
    57 0.00000000000000E+00
    58 0.00000000000000E+00
    59 0.11532272414183E-03
    60 0.12734313084963E-02
    61 0.00000000000000E+00
    62 0.00000000000000E+00
    63 0.00000000000000E+00
    64 0.00000000000000E+00
    65 0.00000000000000E+00
    66 0.13817923002920E+00
    67 0.00000000000000E+00
    68 0.00000000000000E+00
    69 0.91227739055223E-01
    70 0.00000000000000E+00
    71 0.00000000000000E+00
    72 0.00000000000000E+00
    73 0.00000000000000E+00
    74 0.49908540375243E-03
    75 0.58670858215179E-03
    76 0.00000000000000E+00
    77 0.00000000000000E+00
    78 0.00000000000000E+00
    79 0.00000000000000E+00
    80 0.00000000000000E+00
    81 0.26986116968418E+00
    82 0.00000000000000E+00
    83 0.00000000000000E+00
    84 0.17858026471071E+00
    85 0.00000000000000E+00
    86 0.00000000000000E+00
    87 0.00000000000000E+00
    88 0.00000000000000E+00
    89 0.10002891184547E-02
    90 -.48773788140354E-03
    91 0.00000000000000E+00
    92 0.00000000000000E+00
    93 0.00000000000000E+00
    94 0.00000000000000E+00
    95 0.00000000000000E+00
    96 -.13817922986749E+00
    97 0.00000000000000E+00
    98 0.00000000000000E+00
    99 -.91227738956646E-01
   100 0.00000000000000E+00
   101 0.00000000000000E+00
   102 0.00000000000000E+00
   103 0.00000000000000E+00
   104 0.49908540605173E-03
   105 0.58670857875674E-03
   106 0.00000000000000E+00
   107 0.00000000000000E+00
   108 0.00000000000000E+00
   109 0.00000000000000E+00
   110 0.00000000000000E+00
   111 -.26986116948242E+00
   112 0.00000000000000E+00
   113 0.00000000000000E+00
   114 -.17858026458411E+00
   115 0.00000000000000E+00
   116 0.00000000000000E+00
   117 0.00000000000000E+00
   118 0.00000000000000E+00
   119 0.10002891158675E-02
   120 -.48773788571324E-03
 Sym=     5a"  
 Ene= -.59489363313007E-01
 Spin= Alpha
 Occup= 0.000000
     1 0.00000000000000E+00
     2 0.00000000000000E+00
     3 0.00000000000000E+00
     4 0.00000000000000E+00
     5 0.00000000000000E+00
     6 0.24536735676086E+00
     7 0.00000000000000E+00
     8 0.00000000000000E+00
     9 0.20583572215152E+00
    10 0.00000000000000E+00
    11 0.00000000000000E+00
    12 0.00000000000000E+00
    13 0.00000000000000E+00
    14 0.44604289928784E-03
    15 -.13045790748131E-02
    16 0.00000000000000E+00
    17 0.00000000000000E+00
    18 0.00000000000000E+00
    19 0.00000000000000E+00
    20 0.00000000000000E+00
    21 -.31127976295019E+00
    22 0.00000000000000E+00
    23 0.00000000000000E+00
    24 -.25960948798072E+00
    25 0.00000000000000E+00
    26 0.00000000000000E+00
    27 0.00000000000000E+00
    28 0.00000000000000E+00
    29 0.44033391344816E-03
    30 -.15768029505663E-02
    31 0.00000000000000E+00
    32 0.00000000000000E+00
    33 0.00000000000000E+00
    34 0.00000000000000E+00
    35 0.00000000000000E+00
    36 0.24536735662258E+00
    37 0.00000000000000E+00
    38 0.00000000000000E+00
    39 0.20583572200148E+00
    40 0.00000000000000E+00
    41 0.00000000000000E+00
    42 0.00000000000000E+00
    43 0.00000000000000E+00
    44 -.44604290166290E-03
    45 0.13045790699832E-02
    46 0.00000000000000E+00
    47 0.00000000000000E+00
    48 0.00000000000000E+00
    49 0.00000000000000E+00
    50 0.00000000000000E+00
    51 -.31127976282371E+00
    52 0.00000000000000E+00
    53 0.00000000000000E+00
    54 -.25960948788334E+00
    55 0.00000000000000E+00
    56 0.00000000000000E+00
    57 0.00000000000000E+00
    58 0.00000000000000E+00
    59 -.44033391726460E-03
    60 0.15768029508250E-02
    61 0.00000000000000E+00
    62 0.00000000000000E+00
    63 0.00000000000000E+00
    64 0.00000000000000E+00
    65 0.00000000000000E+00
    66 -.12704334027219E+00
    67 0.00000000000000E+00
    68 0.00000000000000E+00
    69 -.11115415397660E+00
    70 0.00000000000000E+00
    71 0.00000000000000E+00
    72 0.00000000000000E+00
    73 0.00000000000000E+00
    74 0.54912511963729E-03
    75 -.86360313528431E-03
    76 0.00000000000000E+00
    77 0.00000000000000E+00
    78 0.00000000000000E+00
    79 0.00000000000000E+00
    80 0.00000000000000E+00
    81 0.28505237904465E+00
    82 0.00000000000000E+00
    83 0.00000000000000E+00
    84 0.25625531268610E+00
    85 0.00000000000000E+00
    86 0.00000000000000E+00
    87 0.00000000000000E+00
    88 0.00000000000000E+00
    89 0.13114521453839E-02
    90 -.80365885104438E-03
    91 0.00000000000000E+00
    92 0.00000000000000E+00
    93 0.00000000000000E+00
    94 0.00000000000000E+00
    95 0.00000000000000E+00
    96 -.12704334044767E+00
    97 0.00000000000000E+00
    98 0.00000000000000E+00
    99 -.11115415415350E+00
   100 0.00000000000000E+00
   101 0.00000000000000E+00
   102 0.00000000000000E+00
   103 0.00000000000000E+00
   104 -.54912511592957E-03
   105 0.86360314090100E-03
   106 0.00000000000000E+00
   107 0.00000000000000E+00
   108 0.00000000000000E+00
   109 0.00000000000000E+00
   110 0.00000000000000E+00
   111 0.28505237931639E+00
   112 0.00000000000000E+00
   113 0.00000000000000E+00
   114 0.25625531294372E+00
   115 0.00000000000000E+00
   116 0.00000000000000E+00
   117 0.00000000000000E+00
   118 0.00000000000000E+00
   119 -.13114521432805E-02
   120 0.80365885802715E-03
 Sym=     1a'  
 Ene= -.60372181446181E-02
 Spin= Alpha
 Occup= 0.000000
     1 0.98694758180910E-05
     2 -.34401742065724E-02
     3 0.18022068534760E+00
     4 0.68584879219367E-01
     5 0.46157179950285E-01
     6 0.00000000000000E+00
     7 0.30295838182842E+00
     8 0.76558589171248E-01
     9 0.00000000000000E+00
    10 0.77006280085202E-02
    11 -.75771958111778E-02
    12 -.12343219734242E-03
    13 0.16659883047803E-01
    14 0.00000000000000E+00
    15 0.00000000000000E+00
    16 -.23090323419436E-03
    17 0.62400223190347E-02
    18 -.30493070304372E+00
    19 -.21297807871036E-01
    20 0.92303353566756E-01
    21 0.00000000000000E+00
    22 -.67440696818345E-01
    23 0.15416032082882E+00
    24 0.00000000000000E+00
    25 -.22936338570847E-01
    26 0.22136690504737E-01
    27 0.79964806610976E-03
    28 -.23665531396393E-03
    29 0.00000000000000E+00
    30 0.00000000000000E+00
    31 0.98694750309377E-05
    32 -.34401741045305E-02
    33 0.18022068575926E+00
    34 -.68584879175310E-01
    35 -.46157179960470E-01
    36 0.00000000000000E+00
    37 -.30295838177392E+00
    38 -.76558589223996E-01
    39 0.00000000000000E+00
    40 0.77006278998606E-02
    41 -.75771957093824E-02
    42 -.12343219047820E-03
    43 0.16659883097174E-01
    44 0.00000000000000E+00
    45 0.00000000000000E+00
    46 -.23090323485391E-03
    47 0.62400222625516E-02
    48 -.30493070344411E+00
    49 0.21297808071179E-01
    50 -.92303353407439E-01
    51 0.00000000000000E+00
    52 0.67440696903766E-01
    53 -.15416032038665E+00
    54 0.00000000000000E+00
    55 -.22936338534605E-01
    56 0.22136690476323E-01
    57 0.79964805828106E-03
    58 -.23665541833491E-03
    59 0.00000000000000E+00
    60 0.00000000000000E+00
    61 0.32007438972976E-03
    62 -.22300782530474E-01
    63 0.16046489998607E+00
    64 0.31086625088095E-01
    65 -.74387877770875E-01
    66 0.00000000000000E+00
    67 0.11223414454752E+00
    68 -.15657475251114E+00
    69 0.00000000000000E+00
    70 0.20626647832734E-01
    71 -.18876207659707E-01
    72 -.17504401730268E-02
    73 -.22425802490769E-02
    74 0.00000000000000E+00
    75 0.00000000000000E+00
    76 -.98502646661276E-04
    77 0.36990190510261E-01
    78 0.34051924480648E-01
    79 -.49239318236113E-01
    80 -.27716549074548E-01
    81 0.00000000000000E+00
    82 -.16406305675684E+00
    83 -.93479951900068E-01
    84 0.00000000000000E+00
    85 -.73611625663385E-02
    86 0.47663445665005E-02
    87 0.25948179998380E-02
    88 -.11901947052728E-01
    89 0.00000000000000E+00
    90 0.00000000000000E+00
    91 0.32007439008353E-03
    92 -.22300782566218E-01
    93 0.16046490011246E+00
    94 -.31086624721831E-01
    95 0.74387877995197E-01
    96 0.00000000000000E+00
    97 -.11223414421815E+00
    98 0.15657475325952E+00
    99 0.00000000000000E+00
   100 0.20626647836087E-01
   101 -.18876207659536E-01
   102 -.17504401765516E-02
   103 -.22425804411804E-02
   104 0.00000000000000E+00
   105 0.00000000000000E+00
   106 -.98502647053668E-04
   107 0.36990190533447E-01