[Molden Format]
[Title]
                                                                                
[Atoms] AU
 c     1    6 0.12076013542776E+01 0.66742740082010E+00 0.00000000000000E+00
 c     2    6 0.34592695331971E+01 -.47124447942270E+00 0.00000000000000E+00
 c     3    6 -.12076013542886E+01 -.66742740102146E+00 0.00000000000000E+00
 c     4    6 -.34592695331725E+01 0.47124447930082E+00 0.00000000000000E+00
 c     5    6 -.58775805608190E+01 -.87322321043039E+00 0.00000000000000E+00
 c     6    6 -.81247150604833E+01 0.24681098586014E+00 0.00000000000000E+00
 c     7    6 0.58775805607705E+01 0.87322321043221E+00 0.00000000000000E+00
 c     8    6 0.81247150605211E+01 -.24681098568839E+00 0.00000000000000E+00
 h     9  100 0.16537927425000E+01 0.44178776539900E+00 -.25000000000000E+00
 h    10  100 0.16537927425000E+01 0.44178776539900E+00 0.25000000000000E+00
 h    11  100 0.78909600379000E+00 0.39383414137700E+00 -.25000000000000E+00
 h    12  100 0.78909600379000E+00 0.39383414137700E+00 0.25000000000000E+00
 h    13  100 0.11799153165400E+01 0.11666602956800E+01 -.25000000000000E+00
 h    14  100 0.11799153165400E+01 0.11666602956800E+01 0.25000000000000E+00
 h    15  100 0.30130781449700E+01 -.24560484400200E+00 -.25000000000000E+00
 h    16  100 0.30130781449700E+01 -.24560484400200E+00 0.25000000000000E+00
 h    17  100 0.38777748836900E+01 -.19765121997900E+00 -.25000000000000E+00
 h    18  100 0.38777748836900E+01 -.19765121997900E+00 0.25000000000000E+00
 h    19  100 0.34869555709400E+01 -.97047737428700E+00 -.25000000000000E+00
 h    20  100 0.34869555709400E+01 -.97047737428700E+00 0.25000000000000E+00
 h    21  100 -.16537927425100E+01 -.44178776558500E+00 -.25000000000000E+00
 h    22  100 -.16537927425100E+01 -.44178776558500E+00 0.25000000000000E+00
 h    23  100 -.78909600379100E+00 -.39383414159200E+00 -.25000000000000E+00
 h    24  100 -.78909600379100E+00 -.39383414159200E+00 0.25000000000000E+00
 h    25  100 -.11799153165700E+01 -.11666602958900E+01 -.25000000000000E+00
 h    26  100 -.11799153165700E+01 -.11666602958900E+01 0.25000000000000E+00
 h    27  100 -.30130781449500E+01 0.24560484386500E+00 -.25000000000000E+00
 h    28  100 -.30130781449500E+01 0.24560484386500E+00 0.25000000000000E+00
 h    29  100 -.38777748836700E+01 0.19765121987200E+00 -.25000000000000E+00
 h    30  100 -.38777748836700E+01 0.19765121987200E+00 0.25000000000000E+00
 h    31  100 -.34869555708900E+01 0.97047737416600E+00 -.25000000000000E+00
 h    32  100 -.34869555708900E+01 0.97047737416600E+00 0.25000000000000E+00
 h    33  100 -.63250752312200E+01 -.65017944799300E+00 -.25000000000000E+00
 h    34  100 -.63250752312200E+01 -.65017944799300E+00 0.25000000000000E+00
 h    35  100 -.54606716611900E+01 -.59720333902300E+00 -.25000000000000E+00
 h    36  100 -.54606716611900E+01 -.59720333902300E+00 0.25000000000000E+00
 h    37  100 -.58469947900400E+01 -.13722868442700E+01 -.25000000000000E+00
 h    38  100 -.58469947900400E+01 -.13722868442700E+01 0.25000000000000E+00
 h    39  100 -.76772203900800E+01 0.23767223422900E-01 -.25000000000000E+00
 h    40  100 -.76772203900800E+01 0.23767223422900E-01 0.25000000000000E+00
 h    41  100 -.85416239601100E+01 -.29208885547200E-01 -.25000000000000E+00
 h    42  100 -.85416239601100E+01 -.29208885547200E-01 0.25000000000000E+00
 h    43  100 -.81553008312600E+01 0.74587461970500E+00 -.25000000000000E+00
 h    44  100 -.81553008312600E+01 0.74587461970500E+00 0.25000000000000E+00
 h    45  100 0.63250752311900E+01 0.65017944802900E+00 -.25000000000000E+00
 h    46  100 0.63250752311900E+01 0.65017944802900E+00 0.25000000000000E+00
 h    47  100 0.54606716611600E+01 0.59720333899300E+00 -.25000000000000E+00
 h    48  100 0.54606716611600E+01 0.59720333899300E+00 0.25000000000000E+00
 h    49  100 0.58469947899600E+01 0.13722868442700E+01 -.25000000000000E+00
 h    50  100 0.58469947899600E+01 0.13722868442700E+01 0.25000000000000E+00
 h    51  100 0.76772203901000E+01 -.23767223285100E-01 -.25000000000000E+00
 h    52  100 0.76772203901000E+01 -.23767223285100E-01 0.25000000000000E+00
 h    53  100 0.85416239601300E+01 0.29208885750600E-01 -.25000000000000E+00
 h    54  100 0.85416239601300E+01 0.29208885750600E-01 0.25000000000000E+00
 h    55  100 0.81553008313300E+01 -.74587461953100E+00 -.25000000000000E+00
 h    56  100 0.81553008313300E+01 -.74587461953100E+00 0.25000000000000E+00
[GTO]
    1 0
 s    5 1.00
 0.12384016938000E+04 0.55173650481097E-02
 0.18629004992000E+03 0.41088828555946E-01
 0.42251176346000E+02 0.18225382126490E+00
 0.11676557932000E+02 0.46828459437429E+00
 0.35930506482000E+01 0.44575817336002E+00
 s    1 1.00
 0.40245147363000E+00 0.10000000000000E+01
 s    1 1.00
 0.13090182668000E+00 0.10000000000000E+01
 p    3 1.00
 0.94680970621000E+01 0.56888332011037E-01
 0.20103545142000E+01 0.31294059336471E+00
 0.54771004707000E+00 0.76065016509135E+00
 p    1 1.00
 0.15268613795000E+00 0.10000000000000E+01
 d    1 1.00
 0.80000000000000E+00 0.10000000000000E+01
 
    2 0
 s    5 1.00
 0.12384016938000E+04 0.55173650481097E-02
 0.18629004992000E+03 0.41088828555946E-01
 0.42251176346000E+02 0.18225382126490E+00
 0.11676557932000E+02 0.46828459437429E+00
 0.35930506482000E+01 0.44575817336002E+00
 s    1 1.00
 0.40245147363000E+00 0.10000000000000E+01
 s    1 1.00
 0.13090182668000E+00 0.10000000000000E+01
 p    3 1.00
 0.94680970621000E+01 0.56888332011037E-01
 0.20103545142000E+01 0.31294059336471E+00
 0.54771004707000E+00 0.76065016509135E+00
 p    1 1.00
 0.15268613795000E+00 0.10000000000000E+01
 d    1 1.00
 0.80000000000000E+00 0.10000000000000E+01
 
    3 0
 s    5 1.00
 0.12384016938000E+04 0.55173650481097E-02
 0.18629004992000E+03 0.41088828555946E-01
 0.42251176346000E+02 0.18225382126490E+00
 0.11676557932000E+02 0.46828459437429E+00
 0.35930506482000E+01 0.44575817336002E+00
 s    1 1.00
 0.40245147363000E+00 0.10000000000000E+01
 s    1 1.00
 0.13090182668000E+00 0.10000000000000E+01
 p    3 1.00
 0.94680970621000E+01 0.56888332011037E-01
 0.20103545142000E+01 0.31294059336471E+00
 0.54771004707000E+00 0.76065016509135E+00
 p    1 1.00
 0.15268613795000E+00 0.10000000000000E+01
 d    1 1.00
 0.80000000000000E+00 0.10000000000000E+01
 
    4 0
 s    5 1.00
 0.12384016938000E+04 0.55173650481097E-02
 0.18629004992000E+03 0.41088828555946E-01
 0.42251176346000E+02 0.18225382126490E+00
 0.11676557932000E+02 0.46828459437429E+00
 0.35930506482000E+01 0.44575817336002E+00
 s    1 1.00
 0.40245147363000E+00 0.10000000000000E+01
 s    1 1.00
 0.13090182668000E+00 0.10000000000000E+01
 p    3 1.00
 0.94680970621000E+01 0.56888332011037E-01
 0.20103545142000E+01 0.31294059336471E+00
 0.54771004707000E+00 0.76065016509135E+00
 p    1 1.00
 0.15268613795000E+00 0.10000000000000E+01
 d    1 1.00
 0.80000000000000E+00 0.10000000000000E+01
 
    5 0
 s    5 1.00
 0.12384016938000E+04 0.55173650481097E-02
 0.18629004992000E+03 0.41088828555946E-01
 0.42251176346000E+02 0.18225382126490E+00
 0.11676557932000E+02 0.46828459437429E+00
 0.35930506482000E+01 0.44575817336002E+00
 s    1 1.00
 0.40245147363000E+00 0.10000000000000E+01
 s    1 1.00
 0.13090182668000E+00 0.10000000000000E+01
 p    3 1.00
 0.94680970621000E+01 0.56888332011037E-01
 0.20103545142000E+01 0.31294059336471E+00
 0.54771004707000E+00 0.76065016509135E+00
 p    1 1.00
 0.15268613795000E+00 0.10000000000000E+01
 d    1 1.00
 0.80000000000000E+00 0.10000000000000E+01
 
    6 0
 s    5 1.00
 0.12384016938000E+04 0.55173650481097E-02
 0.18629004992000E+03 0.41088828555946E-01
 0.42251176346000E+02 0.18225382126490E+00
 0.11676557932000E+02 0.46828459437429E+00
 0.35930506482000E+01 0.44575817336002E+00
 s    1 1.00
 0.40245147363000E+00 0.10000000000000E+01
 s    1 1.00
 0.13090182668000E+00 0.10000000000000E+01
 p    3 1.00
 0.94680970621000E+01 0.56888332011037E-01
 0.20103545142000E+01 0.31294059336471E+00
 0.54771004707000E+00 0.76065016509135E+00
 p    1 1.00
 0.15268613795000E+00 0.10000000000000E+01
 d    1 1.00
 0.80000000000000E+00 0.10000000000000E+01
 
    7 0
 s    5 1.00
 0.12384016938000E+04 0.55173650481097E-02
 0.18629004992000E+03 0.41088828555946E-01
 0.42251176346000E+02 0.18225382126490E+00
 0.11676557932000E+02 0.46828459437429E+00
 0.35930506482000E+01 0.44575817336002E+00
 s    1 1.00
 0.40245147363000E+00 0.10000000000000E+01
 s    1 1.00
 0.13090182668000E+00 0.10000000000000E+01
 p    3 1.00
 0.94680970621000E+01 0.56888332011037E-01
 0.20103545142000E+01 0.31294059336471E+00
 0.54771004707000E+00 0.76065016509135E+00
 p    1 1.00
 0.15268613795000E+00 0.10000000000000E+01
 d    1 1.00
 0.80000000000000E+00 0.10000000000000E+01
 
    8 0
 s    5 1.00
 0.12384016938000E+04 0.55173650481097E-02
 0.18629004992000E+03 0.41088828555946E-01
 0.42251176346000E+02 0.18225382126490E+00
 0.11676557932000E+02 0.46828459437429E+00
 0.35930506482000E+01 0.44575817336002E+00
 s    1 1.00
 0.40245147363000E+00 0.10000000000000E+01
 s    1 1.00
 0.13090182668000E+00 0.10000000000000E+01
 p    3 1.00
 0.94680970621000E+01 0.56888332011037E-01
 0.20103545142000E+01 0.31294059336471E+00
 0.54771004707000E+00 0.76065016509135E+00
 p    1 1.00
 0.15268613795000E+00 0.10000000000000E+01
 d    1 1.00
 0.80000000000000E+00 0.10000000000000E+01
 
    9 0
 
   10 0
 
   11 0
 
   12 0
 
   13 0
 
   14 0
 
   15 0
 
   16 0
 
   17 0
 
   18 0
 
   19 0
 
   20 0
 
   21 0
 
   22 0
 
   23 0
 
   24 0
 
   25 0
 
   26 0
 
   27 0
 
   28 0
 
   29 0
 
   30 0
 
   31 0
 
   32 0
 
   33 0
 
   34 0
 
   35 0
 
   36 0
 
   37 0
 
   38 0
 
   39 0
 
   40 0
 
   41 0
 
   42 0
 
   43 0
 
   44 0
 
   45 0
 
   46 0
 
   47 0
 
   48 0
 
   49 0
 
   50 0
 
   51 0
 
   52 0
 
   53 0
 
   54 0
 
   55 0
 
   56 0
 
[MO]
 Sym=     1a"  
 Ene= -.48546336579324E+00
 Spin= Alpha
 Occup= 2.000000
     1 0.00000000000000E+00
     2 0.00000000000000E+00
     3 0.00000000000000E+00
     4 0.00000000000000E+00
     5 0.00000000000000E+00
     6 0.27282834947958E+00
     7 0.00000000000000E+00
     8 0.00000000000000E+00
     9 0.13881294705817E+00
    10 0.00000000000000E+00
    11 0.00000000000000E+00
    12 0.00000000000000E+00
    13 0.00000000000000E+00
    14 0.71281966645312E-03
    15 -.12902051631285E-02
    16 0.00000000000000E+00
    17 0.00000000000000E+00
    18 0.00000000000000E+00
    19 0.00000000000000E+00
    20 0.00000000000000E+00
    21 0.24742148165857E+00
    22 0.00000000000000E+00
    23 0.00000000000000E+00
    24 0.12793025232658E+00
    25 0.00000000000000E+00
    26 0.00000000000000E+00
    27 0.00000000000000E+00
    28 0.00000000000000E+00
    29 -.72912254743658E-03
    30 0.12519528033655E-02
    31 0.00000000000000E+00
    32 0.00000000000000E+00
    33 0.00000000000000E+00
    34 0.00000000000000E+00
    35 0.00000000000000E+00
    36 0.27282834948783E+00
    37 0.00000000000000E+00
    38 0.00000000000000E+00
    39 0.13881294705873E+00
    40 0.00000000000000E+00
    41 0.00000000000000E+00
    42 0.00000000000000E+00
    43 0.00000000000000E+00
    44 -.71281966634717E-03
    45 0.12902051634008E-02
    46 0.00000000000000E+00
    47 0.00000000000000E+00
    48 0.00000000000000E+00
    49 0.00000000000000E+00
    50 0.00000000000000E+00
    51 0.24742148166498E+00
    52 0.00000000000000E+00
    53 0.00000000000000E+00
    54 0.12793025233127E+00
    55 0.00000000000000E+00
    56 0.00000000000000E+00
    57 0.00000000000000E+00
    58 0.00000000000000E+00
    59 0.72912254701338E-03
    60 -.12519528033612E-02
    61 0.00000000000000E+00
    62 0.00000000000000E+00
    63 0.00000000000000E+00
    64 0.00000000000000E+00
    65 0.00000000000000E+00
    66 0.16362486577078E+00
    67 0.00000000000000E+00
    68 0.00000000000000E+00
    69 0.80707063970085E-01
    70 0.00000000000000E+00
    71 0.00000000000000E+00
    72 0.00000000000000E+00
    73 0.00000000000000E+00
    74 -.31255375237075E-03
    75 0.71518702368813E-03
    76 0.00000000000000E+00
    77 0.00000000000000E+00
    78 0.00000000000000E+00
    79 0.00000000000000E+00
    80 0.00000000000000E+00
    81 0.10644707995013E+00
    82 0.00000000000000E+00
    83 0.00000000000000E+00
    84 0.57651866991439E-01
    85 0.00000000000000E+00
    86 0.00000000000000E+00
    87 0.00000000000000E+00
    88 0.00000000000000E+00
    89 0.74835712862427E-03
    90 -.30154728249661E-03
    91 0.00000000000000E+00
    92 0.00000000000000E+00
    93 0.00000000000000E+00
    94 0.00000000000000E+00
    95 0.00000000000000E+00
    96 0.16362486576430E+00
    97 0.00000000000000E+00
    98 0.00000000000000E+00
    99 0.80707063966277E-01
   100 0.00000000000000E+00
   101 0.00000000000000E+00
   102 0.00000000000000E+00
   103 0.00000000000000E+00
   104 0.31255375229479E-03
   105 -.71518702360949E-03
   106 0.00000000000000E+00
   107 0.00000000000000E+00
   108 0.00000000000000E+00
   109 0.00000000000000E+00
   110 0.00000000000000E+00
   111 0.10644707994465E+00
   112 0.00000000000000E+00
   113 0.00000000000000E+00
   114 0.57651866988150E-01
   115 0.00000000000000E+00
   116 0.00000000000000E+00
   117 0.00000000000000E+00
   118 0.00000000000000E+00
   119 -.74835712854379E-03
   120 0.30154728244716E-03
 Sym=     2a"  
 Ene= -.43644032344721E+00
 Spin= Alpha
 Occup= 2.000000
     1 0.00000000000000E+00
     2 0.00000000000000E+00
     3 0.00000000000000E+00
     4 0.00000000000000E+00
     5 0.00000000000000E+00
     6 -.12521292302809E+00
     7 0.00000000000000E+00
     8 0.00000000000000E+00
     9 -.76071481296714E-01
    10 0.00000000000000E+00
    11 0.00000000000000E+00
    12 0.00000000000000E+00
    13 0.00000000000000E+00
    14 -.45167287159034E-03
    15 0.84215400950904E-03
    16 0.00000000000000E+00
    17 0.00000000000000E+00
    18 0.00000000000000E+00
    19 0.00000000000000E+00
    20 0.00000000000000E+00
    21 -.22117207639545E+00
    22 0.00000000000000E+00
    23 0.00000000000000E+00
    24 -.12022749273869E+00
    25 0.00000000000000E+00
    26 0.00000000000000E+00
    27 0.00000000000000E+00
    28 0.00000000000000E+00
    29 0.51370417968715E-03
    30 -.99200394318847E-03
    31 0.00000000000000E+00
    32 0.00000000000000E+00
    33 0.00000000000000E+00
    34 0.00000000000000E+00
    35 0.00000000000000E+00
    36 0.12521292301945E+00
    37 0.00000000000000E+00
    38 0.00000000000000E+00
    39 0.76071481290556E-01
    40 0.00000000000000E+00
    41 0.00000000000000E+00
    42 0.00000000000000E+00
    43 0.00000000000000E+00
    44 -.45167287146508E-03
    45 0.84215400955881E-03
    46 0.00000000000000E+00
    47 0.00000000000000E+00
    48 0.00000000000000E+00
    49 0.00000000000000E+00
    50 0.00000000000000E+00
    51 0.22117207638660E+00
    52 0.00000000000000E+00
    53 0.00000000000000E+00
    54 0.12022749273460E+00
    55 0.00000000000000E+00
    56 0.00000000000000E+00
    57 0.00000000000000E+00
    58 0.00000000000000E+00
    59 0.51370417924059E-03
    60 -.99200394310418E-03
    61 0.00000000000000E+00
    62 0.00000000000000E+00
    63 0.00000000000000E+00
    64 0.00000000000000E+00
    65 0.00000000000000E+00
    66 0.26669977699561E+00
    67 0.00000000000000E+00
    68 0.00000000000000E+00
    69 0.14688465085103E+00
    70 0.00000000000000E+00
    71 0.00000000000000E+00
    72 0.00000000000000E+00
    73 0.00000000000000E+00
    74 -.49544420384824E-03
    75 0.13556398723898E-02
    76 0.00000000000000E+00
    77 0.00000000000000E+00
    78 0.00000000000000E+00
    79 0.00000000000000E+00
    80 0.00000000000000E+00
    81 0.20576246989138E+00
    82 0.00000000000000E+00
    83 0.00000000000000E+00
    84 0.12089789999337E+00
    85 0.00000000000000E+00
    86 0.00000000000000E+00
    87 0.00000000000000E+00
    88 0.00000000000000E+00
    89 0.14435481722957E-02
    90 -.56362522240478E-03
    91 0.00000000000000E+00
    92 0.00000000000000E+00
    93 0.00000000000000E+00
    94 0.00000000000000E+00
    95 0.00000000000000E+00
    96 -.26669977699802E+00
    97 0.00000000000000E+00
    98 0.00000000000000E+00
    99 -.14688465085119E+00
   100 0.00000000000000E+00
   101 0.00000000000000E+00
   102 0.00000000000000E+00
   103 0.00000000000000E+00
   104 -.49544420377224E-03
   105 0.13556398723293E-02
   106 0.00000000000000E+00
   107 0.00000000000000E+00
   108 0.00000000000000E+00
   109 0.00000000000000E+00
   110 0.00000000000000E+00
   111 -.20576246989121E+00
   112 0.00000000000000E+00
   113 0.00000000000000E+00
   114 -.12089789999256E+00
   115 0.00000000000000E+00
   116 0.00000000000000E+00
   117 0.00000000000000E+00
   118 0.00000000000000E+00
   119 0.14435481722143E-02
   120 -.56362522233933E-03
 Sym=     3a"  
 Ene= -.36371316857639E+00
 Spin= Alpha
 Occup= 2.000000
     1 0.00000000000000E+00
     2 0.00000000000000E+00
     3 0.00000000000000E+00
     4 0.00000000000000E+00
     5 0.00000000000000E+00
     6 -.20589479436884E+00
     7 0.00000000000000E+00
     8 0.00000000000000E+00
     9 -.12546950383378E+00
    10 0.00000000000000E+00
    11 0.00000000000000E+00
    12 0.00000000000000E+00
    13 0.00000000000000E+00
    14 -.33874576779325E-03
    15 0.98400097459504E-03
    16 0.00000000000000E+00
    17 0.00000000000000E+00
    18 0.00000000000000E+00
    19 0.00000000000000E+00
    20 0.00000000000000E+00
    21 -.71118173678576E-01
    22 0.00000000000000E+00
    23 0.00000000000000E+00
    24 -.53954541011650E-01
    25 0.00000000000000E+00
    26 0.00000000000000E+00
    27 0.00000000000000E+00
    28 0.00000000000000E+00
    29 0.42385742678964E-03
    30 -.63657026614611E-03
    31 0.00000000000000E+00
    32 0.00000000000000E+00
    33 0.00000000000000E+00
    34 0.00000000000000E+00
    35 0.00000000000000E+00
    36 -.20589479438009E+00
    37 0.00000000000000E+00
    38 0.00000000000000E+00
    39 -.12546950383815E+00
    40 0.00000000000000E+00
    41 0.00000000000000E+00
    42 0.00000000000000E+00
    43 0.00000000000000E+00
    44 0.33874576772775E-03
    45 -.98400097482852E-03
    46 0.00000000000000E+00
    47 0.00000000000000E+00
    48 0.00000000000000E+00
    49 0.00000000000000E+00
    50 0.00000000000000E+00
    51 -.71118173686579E-01
    52 0.00000000000000E+00
    53 0.00000000000000E+00
    54 -.53954541017497E-01
    55 0.00000000000000E+00
    56 0.00000000000000E+00
    57 0.00000000000000E+00
    58 0.00000000000000E+00
    59 -.42385742674936E-03
    60 0.63657026617913E-03
    61 0.00000000000000E+00
    62 0.00000000000000E+00
    63 0.00000000000000E+00
    64 0.00000000000000E+00
    65 0.00000000000000E+00
    66 0.26070091288596E+00
    67 0.00000000000000E+00
    68 0.00000000000000E+00
    69 0.16930809155902E+00
    70 0.00000000000000E+00
    71 0.00000000000000E+00
    72 0.00000000000000E+00
    73 0.00000000000000E+00
    74 -.53213120556164E-03
    75 0.16112507098879E-02
    76 0.00000000000000E+00
    77 0.00000000000000E+00
    78 0.00000000000000E+00
    79 0.00000000000000E+00
    80 0.00000000000000E+00
    81 0.26940259081682E+00
    82 0.00000000000000E+00
    83 0.00000000000000E+00
    84 0.17675428560655E+00
    85 0.00000000000000E+00
    86 0.00000000000000E+00
    87 0.00000000000000E+00
    88 0.00000000000000E+00
    89 0.18107759873042E-02
    90 -.71840116633046E-03
    91 0.00000000000000E+00
    92 0.00000000000000E+00
    93 0.00000000000000E+00
    94 0.00000000000000E+00
    95 0.00000000000000E+00
    96 0.26070091288556E+00
    97 0.00000000000000E+00
    98 0.00000000000000E+00
    99 0.16930809155731E+00
   100 0.00000000000000E+00
   101 0.00000000000000E+00
   102 0.00000000000000E+00
   103 0.00000000000000E+00
   104 0.53213120550817E-03
   105 -.16112507098337E-02
   106 0.00000000000000E+00
   107 0.00000000000000E+00
   108 0.00000000000000E+00
   109 0.00000000000000E+00
   110 0.00000000000000E+00
   111 0.26940259081459E+00
   112 0.00000000000000E+00
   113 0.00000000000000E+00
   114 0.17675428560415E+00
   115 0.00000000000000E+00
   116 0.00000000000000E+00
   117 0.00000000000000E+00
   118 0.00000000000000E+00
   119 -.18107759871903E-02
   120 0.71840116624565E-03
 Sym=     4a"  
 Ene= -.28172552330686E+00
 Spin= Alpha
 Occup= 2.000000
     1 0.00000000000000E+00
     2 0.00000000000000E+00
     3 0.00000000000000E+00
     4 0.00000000000000E+00
     5 0.00000000000000E+00
     6 0.24069599333416E+00
     7 0.00000000000000E+00
     8 0.00000000000000E+00
     9 0.18051331683929E+00
    10 0.00000000000000E+00
    11 0.00000000000000E+00
    12 0.00000000000000E+00
    13 0.00000000000000E+00
    14 0.76499321737420E-03
    15 -.15584836333021E-02
    16 0.00000000000000E+00
    17 0.00000000000000E+00
    18 0.00000000000000E+00
    19 0.00000000000000E+00
    20 0.00000000000000E+00
    21 0.27382230585390E+00
    22 0.00000000000000E+00
    23 0.00000000000000E+00
    24 0.19994926470224E+00
    25 0.00000000000000E+00
    26 0.00000000000000E+00
    27 0.00000000000000E+00
    28 0.00000000000000E+00
    29 -.75360301667675E-03
    30 0.16539978271896E-02
    31 0.00000000000000E+00
    32 0.00000000000000E+00
    33 0.00000000000000E+00
    34 0.00000000000000E+00
    35 0.00000000000000E+00
    36 -.24069599333270E+00
    37 0.00000000000000E+00
    38 0.00000000000000E+00
    39 -.18051331683526E+00
    40 0.00000000000000E+00
    41 0.00000000000000E+00
    42 0.00000000000000E+00
    43 0.00000000000000E+00
    44 0.76499321718674E-03
    45 -.15584836334526E-02
    46 0.00000000000000E+00
    47 0.00000000000000E+00
    48 0.00000000000000E+00
    49 0.00000000000000E+00
    50 0.00000000000000E+00
    51 -.27382230584789E+00
    52 0.00000000000000E+00
    53 0.00000000000000E+00
    54 -.19994926469904E+00
    55 0.00000000000000E+00
    56 0.00000000000000E+00
    57 0.00000000000000E+00
    58 0.00000000000000E+00
    59 -.75360301623738E-03
    60 0.16539978270991E-02
    61 0.00000000000000E+00
    62 0.00000000000000E+00
    63 0.00000000000000E+00
    64 0.00000000000000E+00
    65 0.00000000000000E+00
    66 0.14848989635690E+00
    67 0.00000000000000E+00
    68 0.00000000000000E+00
    69 0.11432275222021E+00
    70 0.00000000000000E+00
    71 0.00000000000000E+00
    72 0.00000000000000E+00
    73 0.00000000000000E+00
    74 -.44158130057658E-03
    75 0.10841408285922E-02
    76 0.00000000000000E+00
    77 0.00000000000000E+00
    78 0.00000000000000E+00
    79 0.00000000000000E+00
    80 0.00000000000000E+00
    81 0.23055245369742E+00
    82 0.00000000000000E+00
    83 0.00000000000000E+00
    84 0.17004837926901E+00
    85 0.00000000000000E+00
    86 0.00000000000000E+00
    87 0.00000000000000E+00
    88 0.00000000000000E+00
    89 0.14380062446011E-02
    90 -.63592193338843E-03
    91 0.00000000000000E+00
    92 0.00000000000000E+00
    93 0.00000000000000E+00
    94 0.00000000000000E+00
    95 0.00000000000000E+00
    96 -.14848989636258E+00
    97 0.00000000000000E+00
    98 0.00000000000000E+00
    99 -.11432275222366E+00
   100 0.00000000000000E+00
   101 0.00000000000000E+00
   102 0.00000000000000E+00
   103 0.00000000000000E+00
   104 -.44158130057090E-03
   105 0.10841408286244E-02
   106 0.00000000000000E+00
   107 0.00000000000000E+00
   108 0.00000000000000E+00
   109 0.00000000000000E+00
   110 0.00000000000000E+00
   111 -.23055245370564E+00
   112 0.00000000000000E+00
   113 0.00000000000000E+00
   114 -.17004837927427E+00
   115 0.00000000000000E+00
   116 0.00000000000000E+00
   117 0.00000000000000E+00
   118 0.00000000000000E+00
   119 0.14380062445763E-02
   120 -.63592193335033E-03
 Sym=     5a"  
 Ene= 0.91387430584552E-01
 Spin= Alpha
 Occup= 0.000000
     1 0.00000000000000E+00
     2 0.00000000000000E+00
     3 0.00000000000000E+00
     4 0.00000000000000E+00
     5 0.00000000000000E+00
     6 0.23411879936535E+00
     7 0.00000000000000E+00
     8 0.00000000000000E+00
     9 0.25862654857023E+00
    10 0.00000000000000E+00
    11 0.00000000000000E+00
    12 0.00000000000000E+00
    13 0.00000000000000E+00
    14 -.43460388882114E-03
    15 -.11789286015509E-02
    16 0.00000000000000E+00
    17 0.00000000000000E+00
    18 0.00000000000000E+00
    19 0.00000000000000E+00
    20 0.00000000000000E+00
    21 -.28146836819332E+00
    22 0.00000000000000E+00
    23 0.00000000000000E+00
    24 -.30677199291840E+00
    25 0.00000000000000E+00
    26 0.00000000000000E+00
    27 0.00000000000000E+00
    28 0.00000000000000E+00
    29 -.17056539684778E-03
    30 -.13716834082288E-02
    31 0.00000000000000E+00
    32 0.00000000000000E+00
    33 0.00000000000000E+00
    34 0.00000000000000E+00
    35 0.00000000000000E+00
    36 0.23411879937669E+00
    37 0.00000000000000E+00
    38 0.00000000000000E+00
    39 0.25862654857898E+00
    40 0.00000000000000E+00
    41 0.00000000000000E+00
    42 0.00000000000000E+00
    43 0.00000000000000E+00
    44 0.43460388893720E-03
    45 0.11789286017670E-02
    46 0.00000000000000E+00
    47 0.00000000000000E+00
    48 0.00000000000000E+00
    49 0.00000000000000E+00
    50 0.00000000000000E+00
    51 -.28146836820213E+00
    52 0.00000000000000E+00
    53 0.00000000000000E+00
    54 -.30677199292858E+00
    55 0.00000000000000E+00
    56 0.00000000000000E+00
    57 0.00000000000000E+00
    58 0.00000000000000E+00
    59 0.17056539728798E-03
    60 0.13716834082267E-02
    61 0.00000000000000E+00
    62 0.00000000000000E+00
    63 0.00000000000000E+00
    64 0.00000000000000E+00
    65 0.00000000000000E+00
    66 -.12758640130962E+00
    67 0.00000000000000E+00
    68 0.00000000000000E+00
    69 -.15246668418337E+00
    70 0.00000000000000E+00
    71 0.00000000000000E+00
    72 0.00000000000000E+00
    73 0.00000000000000E+00
    74 -.18395729411378E-03
    75 -.83015829682451E-03
    76 0.00000000000000E+00
    77 0.00000000000000E+00
    78 0.00000000000000E+00
    79 0.00000000000000E+00
    80 0.00000000000000E+00
    81 0.23495907387825E+00
    82 0.00000000000000E+00
    83 0.00000000000000E+00
    84 0.29076581967421E+00
    85 0.00000000000000E+00
    86 0.00000000000000E+00
    87 0.00000000000000E+00
    88 0.00000000000000E+00
    89 0.90325566541384E-03
    90 -.72758728715121E-03
    91 0.00000000000000E+00
    92 0.00000000000000E+00
    93 0.00000000000000E+00
    94 0.00000000000000E+00
    95 0.00000000000000E+00
    96 -.12758640130574E+00
    97 0.00000000000000E+00
    98 0.00000000000000E+00
    99 -.15246668417677E+00
   100 0.00000000000000E+00
   101 0.00000000000000E+00
   102 0.00000000000000E+00
   103 0.00000000000000E+00
   104 0.18395729410981E-03
   105 0.83015829675921E-03
   106 0.00000000000000E+00
   107 0.00000000000000E+00
   108 0.00000000000000E+00
   109 0.00000000000000E+00
   110 0.00000000000000E+00
   111 0.23495907386994E+00
   112 0.00000000000000E+00
   113 0.00000000000000E+00
   114 0.29076581966223E+00
   115 0.00000000000000E+00
   116 0.00000000000000E+00
   117 0.00000000000000E+00
   118 0.00000000000000E+00
   119 -.90325566531621E-03
   120 0.72758728709163E-03
 Sym=     1a'  
 Ene= 0.11271035785979E+00
 Spin= Alpha
 Occup= 0.000000
     1 0.89837930682244E-04
     2 -.14639103570013E-01
     3 0.29853115836597E+00
     4 0.54995417285194E-01
     5 0.36160632451888E-01
     6 0.00000000000000E+00
     7 0.35914717712924E+00
     8 0.40897809847718E-01
     9 0.00000000000000E+00
    10 0.72274860808071E-02
    11 -.63669700225069E-02
    12 -.86051605830023E-03
    13 0.13566426765037E-01
    14 0.00000000000000E+00
    15 0.00000000000000E+00
    16 -.48037483335718E-03
    17 0.27902593450789E-01
    18 -.53706888138067E+00
    19 -.16874836221503E-01
    20 0.75029560906070E-01
    21 0.00000000000000E+00
    22 -.70762037415246E-01
    23 0.95398977090400E-01
    24 0.00000000000000E+00
    25 -.21240919184563E-01
    26 0.18938817401731E-01
    27 0.23021017828320E-02
    28 0.59407326844318E-03
    29 0.00000000000000E+00
    30 0.00000000000000E+00
    31 0.89837930645982E-04
    32 -.14639103564919E-01
    33 0.29853115820388E+00
    34 -.54995417291882E-01
    35 -.36160632426088E-01
    36 0.00000000000000E+00
    37 -.35914717717224E+00
    38 -.40897809805830E-01
    39 0.00000000000000E+00
    40 0.72274860753329E-02
    41 -.63669700177111E-02
    42 -.86051605762173E-03
    43 0.13566426764726E-01
    44 0.00000000000000E+00
    45 0.00000000000000E+00
    46 -.48037483330106E-03
    47 0.27902593443289E-01
    48 -.53706888134675E+00
    49 0.16874836240104E-01
    50 -.75029560902132E-01
    51 0.00000000000000E+00
    52 0.70762037527431E-01
    53 -.95398977080118E-01
    54 0.00000000000000E+00
    55 -.21240919183849E-01
    56 0.18938817401242E-01
    57 0.23021017826071E-02
    58 0.59407327525788E-03
    59 0.00000000000000E+00
    60 0.00000000000000E+00
    61 0.59030127840794E-03
    62 -.41521616071604E-01
    63 0.34193691620202E+00
    64 0.22781118404319E-01
    65 -.63685120270049E-01
    66 0.00000000000000E+00
    67 0.14198944677344E+00
    68 -.12549635856511E+00
    69 0.00000000000000E+00
    70 0.19681465564780E-01
    71 -.16896324555361E-01
    72 -.27851410094196E-02
    73 -.17053104277056E-02
    74 0.00000000000000E+00
    75 0.00000000000000E+00
    76 -.74720615607568E-04
    77 0.38583211835342E-01
    78 -.24084475164540E-01
    79 -.42000020624996E-01
    80 -.24811602121437E-01
    81 0.00000000000000E+00
    82 -.21513708637264E+00
    83 -.11730238722133E+00
    84 0.00000000000000E+00
    85 -.81176931215864E-02
    86 0.54657556839096E-02
    87 0.26519374376768E-02
    88 -.10905739449978E-01
    89 0.00000000000000E+00
    90 0.00000000000000E+00
    91 0.59030127836100E-03
    92 -.41521616076375E-01
    93 0.34193691610008E+00
    94 -.22781118419435E-01
    95 0.63685120254057E-01
    96 0.00000000000000E+00
    97 -.14198944681835E+00
    98 0.12549635854026E+00
    99 0.00000000000000E+00
   100 0.19681465562726E-01
   101 -.16896324552877E-01
   102 -.27851410098482E-02
   103 -.17053104278842E-02
   104 0.00000000000000E+00
   105 0.00000000000000E+00
   106 -.74720615547630E-04
   107 0.38583211838782E-01