[Molden Format]
[Title]
                                                                                
[Atoms] AU
 c     1    6 0.12076013542776E+01 0.66742740082010E+00 0.00000000000000E+00
 c     2    6 0.34592695331971E+01 -.47124447942270E+00 0.00000000000000E+00
 c     3    6 -.12076013542886E+01 -.66742740102146E+00 0.00000000000000E+00
 c     4    6 -.34592695331725E+01 0.47124447930082E+00 0.00000000000000E+00
 c     5    6 -.58775805608190E+01 -.87322321043039E+00 0.00000000000000E+00
 c     6    6 -.81247150604833E+01 0.24681098586014E+00 0.00000000000000E+00
 c     7    6 0.58775805607705E+01 0.87322321043221E+00 0.00000000000000E+00
 c     8    6 0.81247150605211E+01 -.24681098568839E+00 0.00000000000000E+00
 h     9  100 0.16537927425000E+01 0.44178776539900E+00 -.25000000000000E+00
 h    10  100 0.16537927425000E+01 0.44178776539900E+00 0.25000000000000E+00
 h    11  100 0.78909600379000E+00 0.39383414137700E+00 -.25000000000000E+00
 h    12  100 0.78909600379000E+00 0.39383414137700E+00 0.25000000000000E+00
 h    13  100 0.11799153165400E+01 0.11666602956800E+01 -.25000000000000E+00
 h    14  100 0.11799153165400E+01 0.11666602956800E+01 0.25000000000000E+00
 h    15  100 0.30130781449700E+01 -.24560484400200E+00 -.25000000000000E+00
 h    16  100 0.30130781449700E+01 -.24560484400200E+00 0.25000000000000E+00
 h    17  100 0.38777748836900E+01 -.19765121997900E+00 -.25000000000000E+00
 h    18  100 0.38777748836900E+01 -.19765121997900E+00 0.25000000000000E+00
 h    19  100 0.34869555709400E+01 -.97047737428700E+00 -.25000000000000E+00
 h    20  100 0.34869555709400E+01 -.97047737428700E+00 0.25000000000000E+00
 h    21  100 -.16537927425100E+01 -.44178776558500E+00 -.25000000000000E+00
 h    22  100 -.16537927425100E+01 -.44178776558500E+00 0.25000000000000E+00
 h    23  100 -.78909600379100E+00 -.39383414159200E+00 -.25000000000000E+00
 h    24  100 -.78909600379100E+00 -.39383414159200E+00 0.25000000000000E+00
 h    25  100 -.11799153165700E+01 -.11666602958900E+01 -.25000000000000E+00
 h    26  100 -.11799153165700E+01 -.11666602958900E+01 0.25000000000000E+00
 h    27  100 -.30130781449500E+01 0.24560484386500E+00 -.25000000000000E+00
 h    28  100 -.30130781449500E+01 0.24560484386500E+00 0.25000000000000E+00
 h    29  100 -.38777748836700E+01 0.19765121987200E+00 -.25000000000000E+00
 h    30  100 -.38777748836700E+01 0.19765121987200E+00 0.25000000000000E+00
 h    31  100 -.34869555708900E+01 0.97047737416600E+00 -.25000000000000E+00
 h    32  100 -.34869555708900E+01 0.97047737416600E+00 0.25000000000000E+00
 h    33  100 -.63250752312200E+01 -.65017944799300E+00 -.25000000000000E+00
 h    34  100 -.63250752312200E+01 -.65017944799300E+00 0.25000000000000E+00
 h    35  100 -.54606716611900E+01 -.59720333902300E+00 -.25000000000000E+00
 h    36  100 -.54606716611900E+01 -.59720333902300E+00 0.25000000000000E+00
 h    37  100 -.58469947900400E+01 -.13722868442700E+01 -.25000000000000E+00
 h    38  100 -.58469947900400E+01 -.13722868442700E+01 0.25000000000000E+00
 h    39  100 -.76772203900800E+01 0.23767223422900E-01 -.25000000000000E+00
 h    40  100 -.76772203900800E+01 0.23767223422900E-01 0.25000000000000E+00
 h    41  100 -.85416239601100E+01 -.29208885547200E-01 -.25000000000000E+00
 h    42  100 -.85416239601100E+01 -.29208885547200E-01 0.25000000000000E+00
 h    43  100 -.81553008312600E+01 0.74587461970500E+00 -.25000000000000E+00
 h    44  100 -.81553008312600E+01 0.74587461970500E+00 0.25000000000000E+00
 h    45  100 0.63250752311900E+01 0.65017944802900E+00 -.25000000000000E+00
 h    46  100 0.63250752311900E+01 0.65017944802900E+00 0.25000000000000E+00
 h    47  100 0.54606716611600E+01 0.59720333899300E+00 -.25000000000000E+00
 h    48  100 0.54606716611600E+01 0.59720333899300E+00 0.25000000000000E+00
 h    49  100 0.58469947899600E+01 0.13722868442700E+01 -.25000000000000E+00
 h    50  100 0.58469947899600E+01 0.13722868442700E+01 0.25000000000000E+00
 h    51  100 0.76772203901000E+01 -.23767223285100E-01 -.25000000000000E+00
 h    52  100 0.76772203901000E+01 -.23767223285100E-01 0.25000000000000E+00
 h    53  100 0.85416239601300E+01 0.29208885750600E-01 -.25000000000000E+00
 h    54  100 0.85416239601300E+01 0.29208885750600E-01 0.25000000000000E+00
 h    55  100 0.81553008313300E+01 -.74587461953100E+00 -.25000000000000E+00
 h    56  100 0.81553008313300E+01 -.74587461953100E+00 0.25000000000000E+00
[GTO]
    1 0
 s    5 1.00
 0.12384016938000E+04 0.55173650481097E-02
 0.18629004992000E+03 0.41088828555946E-01
 0.42251176346000E+02 0.18225382126490E+00
 0.11676557932000E+02 0.46828459437429E+00
 0.35930506482000E+01 0.44575817336002E+00
 s    1 1.00
 0.40245147363000E+00 0.10000000000000E+01
 s    1 1.00
 0.13090182668000E+00 0.10000000000000E+01
 p    3 1.00
 0.94680970621000E+01 0.56888332011037E-01
 0.20103545142000E+01 0.31294059336471E+00
 0.54771004707000E+00 0.76065016509135E+00
 p    1 1.00
 0.15268613795000E+00 0.10000000000000E+01
 d    1 1.00
 0.80000000000000E+00 0.10000000000000E+01
 
    2 0
 s    5 1.00
 0.12384016938000E+04 0.55173650481097E-02
 0.18629004992000E+03 0.41088828555946E-01
 0.42251176346000E+02 0.18225382126490E+00
 0.11676557932000E+02 0.46828459437429E+00
 0.35930506482000E+01 0.44575817336002E+00
 s    1 1.00
 0.40245147363000E+00 0.10000000000000E+01
 s    1 1.00
 0.13090182668000E+00 0.10000000000000E+01
 p    3 1.00
 0.94680970621000E+01 0.56888332011037E-01
 0.20103545142000E+01 0.31294059336471E+00
 0.54771004707000E+00 0.76065016509135E+00
 p    1 1.00
 0.15268613795000E+00 0.10000000000000E+01
 d    1 1.00
 0.80000000000000E+00 0.10000000000000E+01
 
    3 0
 s    5 1.00
 0.12384016938000E+04 0.55173650481097E-02
 0.18629004992000E+03 0.41088828555946E-01
 0.42251176346000E+02 0.18225382126490E+00
 0.11676557932000E+02 0.46828459437429E+00
 0.35930506482000E+01 0.44575817336002E+00
 s    1 1.00
 0.40245147363000E+00 0.10000000000000E+01
 s    1 1.00
 0.13090182668000E+00 0.10000000000000E+01
 p    3 1.00
 0.94680970621000E+01 0.56888332011037E-01
 0.20103545142000E+01 0.31294059336471E+00
 0.54771004707000E+00 0.76065016509135E+00
 p    1 1.00
 0.15268613795000E+00 0.10000000000000E+01
 d    1 1.00
 0.80000000000000E+00 0.10000000000000E+01
 
    4 0
 s    5 1.00
 0.12384016938000E+04 0.55173650481097E-02
 0.18629004992000E+03 0.41088828555946E-01
 0.42251176346000E+02 0.18225382126490E+00
 0.11676557932000E+02 0.46828459437429E+00
 0.35930506482000E+01 0.44575817336002E+00
 s    1 1.00
 0.40245147363000E+00 0.10000000000000E+01
 s    1 1.00
 0.13090182668000E+00 0.10000000000000E+01
 p    3 1.00
 0.94680970621000E+01 0.56888332011037E-01
 0.20103545142000E+01 0.31294059336471E+00
 0.54771004707000E+00 0.76065016509135E+00
 p    1 1.00
 0.15268613795000E+00 0.10000000000000E+01
 d    1 1.00
 0.80000000000000E+00 0.10000000000000E+01
 
    5 0
 s    5 1.00
 0.12384016938000E+04 0.55173650481097E-02
 0.18629004992000E+03 0.41088828555946E-01
 0.42251176346000E+02 0.18225382126490E+00
 0.11676557932000E+02 0.46828459437429E+00
 0.35930506482000E+01 0.44575817336002E+00
 s    1 1.00
 0.40245147363000E+00 0.10000000000000E+01
 s    1 1.00
 0.13090182668000E+00 0.10000000000000E+01
 p    3 1.00
 0.94680970621000E+01 0.56888332011037E-01
 0.20103545142000E+01 0.31294059336471E+00
 0.54771004707000E+00 0.76065016509135E+00
 p    1 1.00
 0.15268613795000E+00 0.10000000000000E+01
 d    1 1.00
 0.80000000000000E+00 0.10000000000000E+01
 
    6 0
 s    5 1.00
 0.12384016938000E+04 0.55173650481097E-02
 0.18629004992000E+03 0.41088828555946E-01
 0.42251176346000E+02 0.18225382126490E+00
 0.11676557932000E+02 0.46828459437429E+00
 0.35930506482000E+01 0.44575817336002E+00
 s    1 1.00
 0.40245147363000E+00 0.10000000000000E+01
 s    1 1.00
 0.13090182668000E+00 0.10000000000000E+01
 p    3 1.00
 0.94680970621000E+01 0.56888332011037E-01
 0.20103545142000E+01 0.31294059336471E+00
 0.54771004707000E+00 0.76065016509135E+00
 p    1 1.00
 0.15268613795000E+00 0.10000000000000E+01
 d    1 1.00
 0.80000000000000E+00 0.10000000000000E+01
 
    7 0
 s    5 1.00
 0.12384016938000E+04 0.55173650481097E-02
 0.18629004992000E+03 0.41088828555946E-01
 0.42251176346000E+02 0.18225382126490E+00
 0.11676557932000E+02 0.46828459437429E+00
 0.35930506482000E+01 0.44575817336002E+00
 s    1 1.00
 0.40245147363000E+00 0.10000000000000E+01
 s    1 1.00
 0.13090182668000E+00 0.10000000000000E+01
 p    3 1.00
 0.94680970621000E+01 0.56888332011037E-01
 0.20103545142000E+01 0.31294059336471E+00
 0.54771004707000E+00 0.76065016509135E+00
 p    1 1.00
 0.15268613795000E+00 0.10000000000000E+01
 d    1 1.00
 0.80000000000000E+00 0.10000000000000E+01
 
    8 0
 s    5 1.00
 0.12384016938000E+04 0.55173650481097E-02
 0.18629004992000E+03 0.41088828555946E-01
 0.42251176346000E+02 0.18225382126490E+00
 0.11676557932000E+02 0.46828459437429E+00
 0.35930506482000E+01 0.44575817336002E+00
 s    1 1.00
 0.40245147363000E+00 0.10000000000000E+01
 s    1 1.00
 0.13090182668000E+00 0.10000000000000E+01
 p    3 1.00
 0.94680970621000E+01 0.56888332011037E-01
 0.20103545142000E+01 0.31294059336471E+00
 0.54771004707000E+00 0.76065016509135E+00
 p    1 1.00
 0.15268613795000E+00 0.10000000000000E+01
 d    1 1.00
 0.80000000000000E+00 0.10000000000000E+01
 
    9 0
 
   10 0
 
   11 0
 
   12 0
 
   13 0
 
   14 0
 
   15 0
 
   16 0
 
   17 0
 
   18 0
 
   19 0
 
   20 0
 
   21 0
 
   22 0
 
   23 0
 
   24 0
 
   25 0
 
   26 0
 
   27 0
 
   28 0
 
   29 0
 
   30 0
 
   31 0
 
   32 0
 
   33 0
 
   34 0
 
   35 0
 
   36 0
 
   37 0
 
   38 0
 
   39 0
 
   40 0
 
   41 0
 
   42 0
 
   43 0
 
   44 0
 
   45 0
 
   46 0
 
   47 0
 
   48 0
 
   49 0
 
   50 0
 
   51 0
 
   52 0
 
   53 0
 
   54 0
 
   55 0
 
   56 0
 
[MO]
 Sym=     1a"  
 Ene= -.57717812991716E+00
 Spin= Beta
 Occup= 1.000000
     1 0.00000000000000E+00
     2 0.00000000000000E+00
     3 0.00000000000000E+00
     4 0.00000000000000E+00
     5 0.00000000000000E+00
     6 0.56775726545960E-01
     7 0.00000000000000E+00
     8 0.00000000000000E+00
     9 0.27717372176728E+00
    10 0.00000000000000E+00
    11 0.00000000000000E+00
    12 0.00000000000000E+00
    13 0.00000000000000E+00
    14 0.14065805535350E-02
    15 -.33441533862128E-02
    16 0.00000000000000E+00
    17 0.00000000000000E+00
    18 0.00000000000000E+00
    19 0.00000000000000E+00
    20 0.00000000000000E+00
    21 0.50508879916034E-01
    22 0.00000000000000E+00
    23 0.00000000000000E+00
    24 0.25132177769319E+00
    25 0.00000000000000E+00
    26 0.00000000000000E+00
    27 0.00000000000000E+00
    28 0.00000000000000E+00
    29 -.23668520821815E-02
    30 0.33419673685886E-02
    31 0.00000000000000E+00
    32 0.00000000000000E+00
    33 0.00000000000000E+00
    34 0.00000000000000E+00
    35 0.00000000000000E+00
    36 0.56775726546877E-01
    37 0.00000000000000E+00
    38 0.00000000000000E+00
    39 0.27717372176318E+00
    40 0.00000000000000E+00
    41 0.00000000000000E+00
    42 0.00000000000000E+00
    43 0.00000000000000E+00
    44 -.14065805532712E-02
    45 0.33441533865324E-02
    46 0.00000000000000E+00
    47 0.00000000000000E+00
    48 0.00000000000000E+00
    49 0.00000000000000E+00
    50 0.00000000000000E+00
    51 0.50508879914650E-01
    52 0.00000000000000E+00
    53 0.00000000000000E+00
    54 0.25132177768808E+00
    55 0.00000000000000E+00
    56 0.00000000000000E+00
    57 0.00000000000000E+00
    58 0.00000000000000E+00
    59 0.23668520816149E-02
    60 -.33419673685149E-02
    61 0.00000000000000E+00
    62 0.00000000000000E+00
    63 0.00000000000000E+00
    64 0.00000000000000E+00
    65 0.00000000000000E+00
    66 0.32287728948866E-01
    67 0.00000000000000E+00
    68 0.00000000000000E+00
    69 0.15377975409728E+00
    70 0.00000000000000E+00
    71 0.00000000000000E+00
    72 0.00000000000000E+00
    73 0.00000000000000E+00
    74 0.40212936766507E-03
    75 0.17766678387035E-02
    76 0.00000000000000E+00
    77 0.00000000000000E+00
    78 0.00000000000000E+00
    79 0.00000000000000E+00
    80 0.00000000000000E+00
    81 0.19011823426791E-01
    82 0.00000000000000E+00
    83 0.00000000000000E+00
    84 0.93893606455528E-01
    85 0.00000000000000E+00
    86 0.00000000000000E+00
    87 0.00000000000000E+00
    88 0.00000000000000E+00
    89 0.20603472407471E-02
    90 -.11133762755972E-02
    91 0.00000000000000E+00
    92 0.00000000000000E+00
    93 0.00000000000000E+00
    94 0.00000000000000E+00
    95 0.00000000000000E+00
    96 0.32287728949957E-01
    97 0.00000000000000E+00
    98 0.00000000000000E+00
    99 0.15377975410148E+00
   100 0.00000000000000E+00
   101 0.00000000000000E+00
   102 0.00000000000000E+00
   103 0.00000000000000E+00
   104 -.40212936766873E-03
   105 -.17766678387199E-02
   106 0.00000000000000E+00
   107 0.00000000000000E+00
   108 0.00000000000000E+00
   109 0.00000000000000E+00
   110 0.00000000000000E+00
   111 0.19011823427383E-01
   112 0.00000000000000E+00
   113 0.00000000000000E+00
   114 0.93893606458401E-01
   115 0.00000000000000E+00
   116 0.00000000000000E+00
   117 0.00000000000000E+00
   118 0.00000000000000E+00
   119 -.20603472408622E-02
   120 0.11133762754968E-02
 Sym=     1a"  
 Ene= -.56642229741172E+00
 Spin= Alpha
 Occup= 1.000000
     1 0.00000000000000E+00
     2 0.00000000000000E+00
     3 0.00000000000000E+00
     4 0.00000000000000E+00
     5 0.00000000000000E+00
     6 0.55950090082719E-01
     7 0.00000000000000E+00
     8 0.00000000000000E+00
     9 0.28283285936507E+00
    10 0.00000000000000E+00
    11 0.00000000000000E+00
    12 0.00000000000000E+00
    13 0.00000000000000E+00
    14 -.10579185827295E-02
    15 -.34625639490417E-02
    16 0.00000000000000E+00
    17 0.00000000000000E+00
    18 0.00000000000000E+00
    19 0.00000000000000E+00
    20 0.00000000000000E+00
    21 0.47869321287390E-01
    22 0.00000000000000E+00
    23 0.00000000000000E+00
    24 0.22745697079311E+00
    25 0.00000000000000E+00
    26 0.00000000000000E+00
    27 0.00000000000000E+00
    28 0.00000000000000E+00
    29 -.43218981942840E-03
    30 0.28056855345589E-02
    31 0.00000000000000E+00
    32 0.00000000000000E+00
    33 0.00000000000000E+00
    34 0.00000000000000E+00
    35 0.00000000000000E+00
    36 0.55950090083948E-01
    37 0.00000000000000E+00
    38 0.00000000000000E+00
    39 0.28283285936259E+00
    40 0.00000000000000E+00
    41 0.00000000000000E+00
    42 0.00000000000000E+00
    43 0.00000000000000E+00
    44 0.10579185829557E-02
    45 0.34625639493219E-02
    46 0.00000000000000E+00
    47 0.00000000000000E+00
    48 0.00000000000000E+00
    49 0.00000000000000E+00
    50 0.00000000000000E+00
    51 0.47869321286910E-01
    52 0.00000000000000E+00
    53 0.00000000000000E+00
    54 0.22745697079319E+00
    55 0.00000000000000E+00
    56 0.00000000000000E+00
    57 0.00000000000000E+00
    58 0.00000000000000E+00
    59 0.43218981889493E-03
    60 -.28056855344385E-02
    61 0.00000000000000E+00
    62 0.00000000000000E+00
    63 0.00000000000000E+00
    64 0.00000000000000E+00
    65 0.00000000000000E+00
    66 0.34641792858017E-01
    67 0.00000000000000E+00
    68 0.00000000000000E+00
    69 0.18180742249753E+00
    70 0.00000000000000E+00
    71 0.00000000000000E+00
    72 0.00000000000000E+00
    73 0.00000000000000E+00
    74 0.13413262441664E-02
    75 0.22802608287628E-02
    76 0.00000000000000E+00
    77 0.00000000000000E+00
    78 0.00000000000000E+00
    79 0.00000000000000E+00
    80 0.00000000000000E+00
    81 0.18896654108537E-01
    82 0.00000000000000E+00
    83 0.00000000000000E+00
    84 0.90219004909235E-01
    85 0.00000000000000E+00
    86 0.00000000000000E+00
    87 0.00000000000000E+00
    88 0.00000000000000E+00
    89 0.17640907421730E-02
    90 -.86738660946680E-03
    91 0.00000000000000E+00
    92 0.00000000000000E+00
    93 0.00000000000000E+00
    94 0.00000000000000E+00
    95 0.00000000000000E+00
    96 0.34641792858592E-01
    97 0.00000000000000E+00
    98 0.00000000000000E+00
    99 0.18180742249955E+00
   100 0.00000000000000E+00
   101 0.00000000000000E+00
   102 0.00000000000000E+00
   103 0.00000000000000E+00
   104 -.13413262441406E-02
   105 -.22802608288143E-02
   106 0.00000000000000E+00
   107 0.00000000000000E+00
   108 0.00000000000000E+00
   109 0.00000000000000E+00
   110 0.00000000000000E+00
   111 0.18896654108654E-01
   112 0.00000000000000E+00
   113 0.00000000000000E+00
   114 0.90219004909104E-01
   115 0.00000000000000E+00
   116 0.00000000000000E+00
   117 0.00000000000000E+00
   118 0.00000000000000E+00
   119 -.17640907422254E-02
   120 0.86738660936380E-03
 Sym=     2a"  
 Ene= -.49806652185091E+00
 Spin= Beta
 Occup= 1.000000
     1 0.00000000000000E+00
     2 0.00000000000000E+00
     3 0.00000000000000E+00
     4 0.00000000000000E+00
     5 0.00000000000000E+00
     6 0.23428188091250E-01
     7 0.00000000000000E+00
     8 0.00000000000000E+00
     9 0.15271416597491E+00
    10 0.00000000000000E+00
    11 0.00000000000000E+00
    12 0.00000000000000E+00
    13 0.00000000000000E+00
    14 0.31728852338551E-02
    15 -.16627540102292E-02
    16 0.00000000000000E+00
    17 0.00000000000000E+00
    18 0.00000000000000E+00
    19 0.00000000000000E+00
    20 0.00000000000000E+00
    21 0.45504903619931E-01
    22 0.00000000000000E+00
    23 0.00000000000000E+00
    24 0.25271151226311E+00
    25 0.00000000000000E+00
    26 0.00000000000000E+00
    27 0.00000000000000E+00
    28 0.00000000000000E+00
    29 0.42454880073783E-04
    30 0.23188294798248E-02
    31 0.00000000000000E+00
    32 0.00000000000000E+00
    33 0.00000000000000E+00
    34 0.00000000000000E+00
    35 0.00000000000000E+00
    36 -.23428188093044E-01
    37 0.00000000000000E+00
    38 0.00000000000000E+00
    39 -.15271416598211E+00
    40 0.00000000000000E+00
    41 0.00000000000000E+00
    42 0.00000000000000E+00
    43 0.00000000000000E+00
    44 0.31728852337140E-02
    45 -.16627540104650E-02
    46 0.00000000000000E+00
    47 0.00000000000000E+00
    48 0.00000000000000E+00
    49 0.00000000000000E+00
    50 0.00000000000000E+00
    51 -.45504903620413E-01
    52 0.00000000000000E+00
    53 0.00000000000000E+00
    54 -.25271151226675E+00
    55 0.00000000000000E+00
    56 0.00000000000000E+00
    57 0.00000000000000E+00
    58 0.00000000000000E+00
    59 0.42454880462432E-04
    60 0.23188294797780E-02
    61 0.00000000000000E+00
    62 0.00000000000000E+00
    63 0.00000000000000E+00
    64 0.00000000000000E+00
    65 0.00000000000000E+00
    66 -.50383992894760E-01
    67 0.00000000000000E+00
    68 0.00000000000000E+00
    69 -.28914593414650E+00
    70 0.00000000000000E+00
    71 0.00000000000000E+00
    72 0.00000000000000E+00
    73 0.00000000000000E+00
    74 0.51681483402098E-03
    75 -.26437479106543E-02
    76 0.00000000000000E+00
    77 0.00000000000000E+00
    78 0.00000000000000E+00
    79 0.00000000000000E+00
    80 0.00000000000000E+00
    81 -.35559053614946E-01
    82 0.00000000000000E+00
    83 0.00000000000000E+00
    84 -.20687006970445E+00
    85 0.00000000000000E+00
    86 0.00000000000000E+00
    87 0.00000000000000E+00
    88 0.00000000000000E+00
    89 -.33336037656981E-02
    90 0.16261806361386E-02
    91 0.00000000000000E+00
    92 0.00000000000000E+00
    93 0.00000000000000E+00
    94 0.00000000000000E+00
    95 0.00000000000000E+00
    96 0.50383992894804E-01
    97 0.00000000000000E+00
    98 0.00000000000000E+00
    99 0.28914593414526E+00
   100 0.00000000000000E+00
   101 0.00000000000000E+00
   102 0.00000000000000E+00
   103 0.00000000000000E+00
   104 0.51681483402688E-03
   105 -.26437479105454E-02
   106 0.00000000000000E+00
   107 0.00000000000000E+00
   108 0.00000000000000E+00
   109 0.00000000000000E+00
   110 0.00000000000000E+00
   111 0.35559053615035E-01
   112 0.00000000000000E+00
   113 0.00000000000000E+00
   114 0.20687006970466E+00
   115 0.00000000000000E+00
   116 0.00000000000000E+00
   117 0.00000000000000E+00
   118 0.00000000000000E+00
   119 -.33336037657286E-02
   120 0.16261806359250E-02
 Sym=     2a"  
 Ene= -.48534038120845E+00
 Spin= Alpha
 Occup= 1.000000
     1 0.00000000000000E+00
     2 0.00000000000000E+00
     3 0.00000000000000E+00
     4 0.00000000000000E+00
     5 0.00000000000000E+00
     6 0.17481415063720E-01
     7 0.00000000000000E+00
     8 0.00000000000000E+00
     9 0.78921488806608E-01
    10 0.00000000000000E+00
    11 0.00000000000000E+00
    12 0.00000000000000E+00
    13 0.00000000000000E+00
    14 0.22297465211839E-02
    15 -.76963515795144E-03
    16 0.00000000000000E+00
    17 0.00000000000000E+00
    18 0.00000000000000E+00
    19 0.00000000000000E+00
    20 0.00000000000000E+00
    21 0.43823348469112E-01
    22 0.00000000000000E+00
    23 0.00000000000000E+00
    24 0.25457960587913E+00
    25 0.00000000000000E+00
    26 0.00000000000000E+00
    27 0.00000000000000E+00
    28 0.00000000000000E+00
    29 0.18204576552161E-02
    30 0.23089719616924E-02
    31 0.00000000000000E+00
    32 0.00000000000000E+00
    33 0.00000000000000E+00
    34 0.00000000000000E+00
    35 0.00000000000000E+00
    36 -.17481415064167E-01
    37 0.00000000000000E+00
    38 0.00000000000000E+00
    39 -.78921488806521E-01
    40 0.00000000000000E+00
    41 0.00000000000000E+00
    42 0.00000000000000E+00
    43 0.00000000000000E+00
    44 0.22297465210732E-02
    45 -.76963515807927E-03
    46 0.00000000000000E+00
    47 0.00000000000000E+00
    48 0.00000000000000E+00
    49 0.00000000000000E+00
    50 0.00000000000000E+00
    51 -.43823348469200E-01
    52 0.00000000000000E+00
    53 0.00000000000000E+00
    54 -.25457960588119E+00
    55 0.00000000000000E+00
    56 0.00000000000000E+00
    57 0.00000000000000E+00
    58 0.00000000000000E+00
    59 0.18204576556814E-02
    60 0.23089719615381E-02
    61 0.00000000000000E+00
    62 0.00000000000000E+00
    63 0.00000000000000E+00
    64 0.00000000000000E+00
    65 0.00000000000000E+00
    66 -.52738562440245E-01
    67 0.00000000000000E+00
    68 0.00000000000000E+00
    69 -.32351161882852E+00
    70 0.00000000000000E+00
    71 0.00000000000000E+00
    72 0.00000000000000E+00
    73 0.00000000000000E+00
    74 -.77796159558375E-03
    75 -.30588317408510E-02
    76 0.00000000000000E+00
    77 0.00000000000000E+00
    78 0.00000000000000E+00
    79 0.00000000000000E+00
    80 0.00000000000000E+00
    81 -.34945098554014E-01
    82 0.00000000000000E+00
    83 0.00000000000000E+00
    84 -.19628462628264E+00
    85 0.00000000000000E+00
    86 0.00000000000000E+00
    87 0.00000000000000E+00
    88 0.00000000000000E+00
    89 -.27210408887549E-02
    90 0.12150394387806E-02
    91 0.00000000000000E+00
    92 0.00000000000000E+00
    93 0.00000000000000E+00
    94 0.00000000000000E+00
    95 0.00000000000000E+00
    96 0.52738562440494E-01
    97 0.00000000000000E+00
    98 0.00000000000000E+00
    99 0.32351161882866E+00
   100 0.00000000000000E+00
   101 0.00000000000000E+00
   102 0.00000000000000E+00
   103 0.00000000000000E+00
   104 -.77796159556308E-03
   105 -.30588317408359E-02
   106 0.00000000000000E+00
   107 0.00000000000000E+00
   108 0.00000000000000E+00
   109 0.00000000000000E+00
   110 0.00000000000000E+00
   111 0.34945098553847E-01
   112 0.00000000000000E+00
   113 0.00000000000000E+00
   114 0.19628462628003E+00
   115 0.00000000000000E+00
   116 0.00000000000000E+00
   117 0.00000000000000E+00
   118 0.00000000000000E+00
   119 -.27210408887594E-02
   120 0.12150394386118E-02
 Sym=     3a"  
 Ene= -.38523289953132E+00
 Spin= Beta
 Occup= 1.000000
     1 0.00000000000000E+00
     2 0.00000000000000E+00
     3 0.00000000000000E+00
     4 0.00000000000000E+00
     5 0.00000000000000E+00
     6 -.38033717371963E-01
     7 0.00000000000000E+00
     8 0.00000000000000E+00
     9 -.26131561845163E+00
    10 0.00000000000000E+00
    11 0.00000000000000E+00
    12 0.00000000000000E+00
    13 0.00000000000000E+00
    14 0.59992533286809E-03
    15 0.14740980836802E-02
    16 0.00000000000000E+00
    17 0.00000000000000E+00
    18 0.00000000000000E+00
    19 0.00000000000000E+00
    20 0.00000000000000E+00
    21 -.75691303188649E-02
    22 0.00000000000000E+00
    23 0.00000000000000E+00
    24 -.75837658953485E-01
    25 0.00000000000000E+00
    26 0.00000000000000E+00
    27 0.00000000000000E+00
    28 0.00000000000000E+00
    29 0.32358590652076E-02
    30 -.84963732743347E-03
    31 0.00000000000000E+00
    32 0.00000000000000E+00
    33 0.00000000000000E+00
    34 0.00000000000000E+00
    35 0.00000000000000E+00
    36 -.38033717372889E-01
    37 0.00000000000000E+00
    38 0.00000000000000E+00
    39 -.26131561844939E+00
    40 0.00000000000000E+00
    41 0.00000000000000E+00
    42 0.00000000000000E+00
    43 0.00000000000000E+00
    44 -.59992533301243E-03
    45 -.14740980838636E-02
    46 0.00000000000000E+00
    47 0.00000000000000E+00
    48 0.00000000000000E+00
    49 0.00000000000000E+00
    50 0.00000000000000E+00
    51 -.75691303179510E-02
    52 0.00000000000000E+00
    53 0.00000000000000E+00
    54 -.75837658949389E-01
    55 0.00000000000000E+00
    56 0.00000000000000E+00
    57 0.00000000000000E+00
    58 0.00000000000000E+00
    59 -.32358590651073E-02
    60 0.84963732752988E-03
    61 0.00000000000000E+00
    62 0.00000000000000E+00
    63 0.00000000000000E+00
    64 0.00000000000000E+00
    65 0.00000000000000E+00
    66 0.45258094149479E-01
    67 0.00000000000000E+00
    68 0.00000000000000E+00
    69 0.34216631871667E+00
    70 0.00000000000000E+00
    71 0.00000000000000E+00
    72 0.00000000000000E+00
    73 0.00000000000000E+00
    74 -.23564846276836E-02
    75 0.24759801696577E-02
    76 0.00000000000000E+00
    77 0.00000000000000E+00
    78 0.00000000000000E+00
    79 0.00000000000000E+00
    80 0.00000000000000E+00
    81 0.44971257471341E-01
    82 0.00000000000000E+00
    83 0.00000000000000E+00
    84 0.33040549782505E+00
    85 0.00000000000000E+00
    86 0.00000000000000E+00
    87 0.00000000000000E+00
    88 0.00000000000000E+00
    89 0.32472946779493E-02
    90 -.14098128415993E-02
    91 0.00000000000000E+00
    92 0.00000000000000E+00
    93 0.00000000000000E+00
    94 0.00000000000000E+00
    95 0.00000000000000E+00
    96 0.45258094149406E-01
    97 0.00000000000000E+00
    98 0.00000000000000E+00
    99 0.34216631871461E+00
   100 0.00000000000000E+00
   101 0.00000000000000E+00
   102 0.00000000000000E+00
   103 0.00000000000000E+00
   104 0.23564846277183E-02
   105 -.24759801694788E-02
   106 0.00000000000000E+00
   107 0.00000000000000E+00
   108 0.00000000000000E+00
   109 0.00000000000000E+00
   110 0.00000000000000E+00
   111 0.44971257471755E-01
   112 0.00000000000000E+00
   113 0.00000000000000E+00
   114 0.33040549782771E+00
   115 0.00000000000000E+00
   116 0.00000000000000E+00
   117 0.00000000000000E+00
   118 0.00000000000000E+00
   119 -.32472946779112E-02
   120 0.14098128414070E-02
 Sym=     3a"  
 Ene= -.36910139264037E+00
 Spin= Alpha
 Occup= 1.000000
     1 0.00000000000000E+00
     2 0.00000000000000E+00
     3 0.00000000000000E+00
     4 0.00000000000000E+00
     5 0.00000000000000E+00
     6 -.44488874607431E-01
     7 0.00000000000000E+00
     8 0.00000000000000E+00
     9 -.35721428689876E+00
    10 0.00000000000000E+00
    11 0.00000000000000E+00
    12 0.00000000000000E+00
    13 0.00000000000000E+00
    14 0.26205060317903E-02
    15 0.21124139773353E-02
    16 0.00000000000000E+00
    17 0.00000000000000E+00
    18 0.00000000000000E+00
    19 0.00000000000000E+00
    20 0.00000000000000E+00
    21 0.81513314657615E-03
    22 0.00000000000000E+00
    23 0.00000000000000E+00
    24 0.55664696598717E-01
    25 0.00000000000000E+00
    26 0.00000000000000E+00
    27 0.00000000000000E+00
    28 0.00000000000000E+00
    29 0.32039510066166E-02
    30 0.22482713858156E-03
    31 0.00000000000000E+00
    32 0.00000000000000E+00
    33 0.00000000000000E+00
    34 0.00000000000000E+00
    35 0.00000000000000E+00
    36 -.44488874609160E-01
    37 0.00000000000000E+00
    38 0.00000000000000E+00
    39 -.35721428689977E+00
    40 0.00000000000000E+00
    41 0.00000000000000E+00
    42 0.00000000000000E+00
    43 0.00000000000000E+00
    44 -.26205060318962E-02
    45 -.21124139775321E-02
    46 0.00000000000000E+00
    47 0.00000000000000E+00
    48 0.00000000000000E+00
    49 0.00000000000000E+00
    50 0.00000000000000E+00
    51 0.81513314660689E-03
    52 0.00000000000000E+00
    53 0.00000000000000E+00
    54 0.55664696596701E-01
    55 0.00000000000000E+00
    56 0.00000000000000E+00
    57 0.00000000000000E+00
    58 0.00000000000000E+00
    59 -.32039510066385E-02
    60 -.22482713845340E-03
    61 0.00000000000000E+00
    62 0.00000000000000E+00
    63 0.00000000000000E+00
    64 0.00000000000000E+00
    65 0.00000000000000E+00
    66 0.44177007927403E-01
    67 0.00000000000000E+00
    68 0.00000000000000E+00
    69 0.32599271149316E+00
    70 0.00000000000000E+00
    71 0.00000000000000E+00
    72 0.00000000000000E+00
    73 0.00000000000000E+00
    74 -.10782332591162E-02
    75 0.20933965543739E-02
    76 0.00000000000000E+00
    77 0.00000000000000E+00
    78 0.00000000000000E+00
    79 0.00000000000000E+00
    80 0.00000000000000E+00
    81 0.38936944868336E-01
    82 0.00000000000000E+00
    83 0.00000000000000E+00
    84 0.27020240749682E+00
    85 0.00000000000000E+00
    86 0.00000000000000E+00
    87 0.00000000000000E+00
    88 0.00000000000000E+00
    89 0.23698318841524E-02
    90 -.97731052801237E-03
    91 0.00000000000000E+00
    92 0.00000000000000E+00
    93 0.00000000000000E+00
    94 0.00000000000000E+00
    95 0.00000000000000E+00
    96 0.44177007927762E-01
    97 0.00000000000000E+00
    98 0.00000000000000E+00
    99 0.32599271149471E+00
   100 0.00000000000000E+00
   101 0.00000000000000E+00
   102 0.00000000000000E+00
   103 0.00000000000000E+00
   104 0.10782332590965E-02
   105 -.20933965542947E-02
   106 0.00000000000000E+00
   107 0.00000000000000E+00