
OPTIMIZATION CYCLE 7
Wed Apr  5 14:59:41 CEST 2017
 operating system is UNIX !
 hostname is alaxis.univ-amu.fr

 grad (alaxis.univ-amu.fr) : TURBOMOLE V7.1 ( 20661 ) 10 Jun 2016 at 08:56:48
 Copyright (C) 2016 TURBOMOLE GmbH, Karlsruhe


    2017-04-05 14:59:41.308 



                             g r a d - program

                reinhart ahlrichs, hans horn & ansgar schaefer
                 density functional version : oliver treutler


                          quantum chemistry group
                          universitaet  karlsruhe
                                   germany




                                                 
                                 References:     
                                                 
          Density Functional:                              
              O. Treutler and R. Ahlrichs                      
              Efficient Molecular Numerical Integration Schemes
              J. chem. Phys. 102: 346 (1995)                   
          Parallel Version:                                
              Performance of parallel TURBOMOLE for Density    
              Functional Calculations                          
              M. v.Arnim and R. Ahlrichs                      
              J. comp. Chem. 19: 1746 (1998)                   
                                         




              +--------------------------------------------------+
              | Atomic coordinate, charge and isotop information |
              +--------------------------------------------------+

                    atomic coordinates            atom    charge  isotop
          1.20762354    0.66742129    0.00000000    c      6.000     0
          1.12336746    2.71831582    0.00000000    h      1.000     0
          3.45925023   -0.47130573    0.00000000    c      6.000     0
          3.54771049   -2.52213075    0.00000000    h      1.000     0
         -1.20762354   -0.66742129    0.00000000    c      6.000     0
         -1.12336746   -2.71831582    0.00000000    h      1.000     0
         -3.45925023    0.47130573    0.00000000    c      6.000     0
         -3.54771049    2.52213075    0.00000000    h      1.000     0
         -5.87762737   -0.87316245    0.00000000    c      6.000     0
         -5.77975408   -2.92296224    0.00000000    h      1.000     0
         -8.12476821    0.24686392    0.00000000    c      6.000     0
         -9.86067714   -0.83981653    0.00000000    h      1.000     0
         -8.31187843    2.28952417    0.00000000    h      1.000     0
          5.87762737    0.87316245    0.00000000    c      6.000     0
          5.77975408    2.92296224    0.00000000    h      1.000     0
          8.12476821   -0.24686392    0.00000000    c      6.000     0
          9.86067714    0.83981653    0.00000000    h      1.000     0
          8.31187843   -2.28952417    0.00000000    h      1.000     0
 
       center of nuclear mass  :    0.00000000   -0.00000000    0.00000000
       center of nuclear charge:    0.00000000   -0.00000000    0.00000000

              +--------------------------------------------------+
              |               basis set information              |
              +--------------------------------------------------+

              we will work with the 1s 3p 5d 7f 9g ... basis set
              ...i.e. with spherical basis functions...

   type   atoms  prim   cont   basis
   ---------------------------------------------------------------------------
    c        8     24     14   def-SV(P)   [3s2p1d|7s4p1d]
    h       10      4      2   def-SV(P)   [2s|4s]
   ---------------------------------------------------------------------------
   total:   18    232    132
   ---------------------------------------------------------------------------

   total number of primitive shells          :   16
   total number of contracted shells         :   68
   total number of cartesian basis functions :  140
   total number of SCF-basis functions       :  132


 integral neglect threshold       :  0.24E-10
 integral storage threshold THIZE :  0.10E-04
 integral storage threshold THIME :         5


 symmetry group of the molecule :   cs

 the group has the following generators :
   c1(z)
   mirror plane sigma(xy)

    2 symmetry operations found

 there are 2 real representations :   a'   a"  

 maximum number of shells which are related by symmetry :  1


    mo occupation :
   irrep   mo's   occupied
    a'     100       25
    a"      32        4
 
 number of basis functions   :          132
 number of occupied orbitals :           29
 

 number of off-diagonal lagrangians expected :  0
  MOs are in ASCII format !


 reading orbital data $scfmo  from file mos
 orbital characterization : scfconv=7
 time elapsed for calculating density matrices :   0.001 sec

  grad preliminaries : cpu elapsed         0.022 s
                       wall                0.040 s



                    and now featuring
                             the super-duper gradient    ..... wow .....


 ------------------------------------------------------------------------------

            SCF ENERGY GRADIENT with respect to NUCLEAR COORDINATES            

 ------------------------------------------------------------------------------



    ----------------------------------------
     S+T+V CONTRIBUTIONS TO ENERGY GRADIENT 
    ----------------------------------------

 1e-integral 1st. derivatives will be neglected if expon. factor < 0.100000E-10


  .... end of 1e gradient ....
  cpu time for 1e-part of gradient :      0.10 sec


    -----------------------------------------------
     TWO ELECTRON CONTRIBUTIONS TO ENERGY GRADIENT 
    -----------------------------------------------

 biggest 1-particle AO density matrix element is expected to be    2.0943367707

 core memory to be involved in 2e-gradient :
   symmetry shell pair data              :         1
   one and two particle density          :     13512
   derivative integrals                  :      8496
   ij-primitive data                     :       225
   derivative integral bound             :      7038
   totally                               :     29271


 setting up bound for integral derivative estimation

 increment for numerical differentiation : 0.00050000

 biggest AO integral is expected to be     3.528781981
 biggest cartesian 1st derivative AO integral is expected to be     5.507249476

 2e-integral 1st. derivatives will be neglected if expon. factor < 0.100000E-06
 outer boundary for 2e-integral derivative neglection is 0.379976E-08


  .... end of 2e gradient ....
  cpu time for 2e-part of gradient :      0.13 min


          ------------------------------------------------
           cartesian gradient of the energy (hartree/bohr)
          ------------------------------------------------

  ATOM      1 c           2 h           3 c           4 h           5 c 
dE/dx  0.3126480D-04 -0.1289013D-04 -0.4031062D-04  0.9459419D-05 -0.3126480D-04
dE/dy  0.6049467D-05 -0.1169317D-05 -0.3174171D-05 -0.4726700D-06 -0.6049463D-05
dE/dz  0.0000000D+00  0.0000000D+00  0.0000000D+00  0.0000000D+00  0.0000000D+00

  ATOM      6 h           7 c           8 h           9 c          10 h 
dE/dx  0.1289012D-04  0.4031063D-04 -0.9459425D-05 -0.5793145D-04  0.2940429D-04
dE/dy  0.1169315D-05  0.3174161D-05  0.4726721D-06 -0.1402434D-04  0.6116305D-06
dE/dz  0.0000000D+00  0.0000000D+00  0.0000000D+00  0.0000000D+00  0.0000000D+00

  ATOM     11 c          12 h          13 h          14 c          15 h 
dE/dx -0.3660629D-05  0.8782022D-05  0.3360650D-05  0.5793142D-04 -0.2940428D-04
dE/dy  0.3124023D-04 -0.9652514D-05 -0.3323538D-05  0.1402433D-04 -0.6116300D-06
dE/dz  0.0000000D+00  0.0000000D+00  0.0000000D+00  0.0000000D+00  0.0000000D+00

  ATOM     16 c          17 h          18 h 
dE/dx  0.3660646D-05 -0.8782020D-05 -0.3360657D-05
dE/dy -0.3124022D-04  0.9652513D-05  0.3323537D-05
dE/dz  0.0000000D+00  0.0000000D+00  0.0000000D+00
 
 resulting FORCE  (fx,fy,fz) = (0.125D-11,0.381D-12,0.000D+00)
 resulting MOMENT (mx,my,mz) = (0.000D+00,0.000D+00,-.761D-05)


 exx =       0.000006 eyy =       0.000044 ezz =       0.000000
 eyz =       0.000000 exz =       0.000000 exy =      -0.000114


 **********************************************************************
  |maximum component of gradient| : 0.57931450E-04  (atom  9 c )       
   gradient norm                  : 0.13043035E-03
 **********************************************************************
   ***  cartesian gradients written onto <gradient>  ***


     --- calculation of the energy gradient finished ---



    ------------------------------------------------------------------------
         total  cpu-time :   8.06 seconds
         total wall-time :  12.75 seconds
    ------------------------------------------------------------------------

   ****  grad : all done  ****


    2017-04-05 14:59:54.052 

fine, there is no data group "$actual step"
next step = relax
 hostname is alaxis.univ-amu.fr

 statpt (alaxis.univ-amu.fr) : TURBOMOLE V7.1 ( 20661 ) 10 Jun 2016 at 08:56:48
 Copyright (C) 2016 TURBOMOLE GmbH, Karlsruhe


    2017-04-05 14:59:54.464 



                           this is S T A T P T   


                     hessian and coordinate update for
                          stationary point search 

                     by barbara unterreiner, marek sierka,
                           and reinhart ahlrichs

                          quantum chemistry group
                          universitaet  karlsruhe
                                  germany


  Keyword $statpt not found - using default options
 
        ***************  Stationary point options ******************
        ************************************************************
           Maximum allowed trust radius:           3.000000E-01
           Minimum allowed trust radius:           1.000000E-03
           Initial trust radius:                   1.500000E-01
           GDIIS used if gradient norm <           1.000000E-02
           Number of previous steps for GDIIS:       5
           Hessian update method:                  BFGS
                        *** Convergence criteria ***                
           Threshold for energy change:            1.000000E-06
           Threshold for max displacement element: 1.000000E-03
           Threshold for max gradient element :    1.000000E-03
           Threshold for RMS of displacement:      5.000000E-04
           Threshold for RMS of gradient:          5.000000E-04
        ************************************************************
 
     Number of symmetry restricted degrees of freedom:    36
     Constituted by:     2 translational degrees of freedom
                         1 rotational degrees of freedom
                      33 internal degrees of freedom

  *************************************************************************
   ATOM                      CARTESIAN COORDINATES
    1 c       1.20762353707484      0.66742129420692      0.00000000000000
    2 h       1.12336745641825      2.71831581527183      0.00000000000000
    3 c       3.45925022847853     -0.47130572673189      0.00000000000000
    4 h       3.54771048549544     -2.52213074537588      0.00000000000000
    5 c      -1.20762353707835     -0.66742129452589      0.00000000000000
    6 h      -1.12336745652282     -2.71831581559989      0.00000000000000
    7 c      -3.45925022843703      0.47130572649257      0.00000000000000
    8 h      -3.54771048541147      2.52213074514679      0.00000000000000
    9 c      -5.87762736908754     -0.87316244878312      0.00000000000000
   10 h      -5.77975407549923     -2.92296224473548      0.00000000000000
   11 c      -8.12476820547108      0.24686391717155      0.00000000000000
   12 h      -9.86067714473198     -0.83981653225314      0.00000000000000
   13 h      -8.31187843017466      2.28952417132771      0.00000000000000
   14 c       5.87762736899034      0.87316244876861      0.00000000000000
   15 h       5.77975407529910      2.92296224471725      0.00000000000000
   16 c       8.12476820554958     -0.24686391686047      0.00000000000000
   17 h       9.86067714468004      0.83981653276732      0.00000000000000
   18 h       8.31187843042810     -2.28952417100483      0.00000000000000
  *************************************************************************
   ATOM                      CARTESIAN GRADIENTS  
    1 c       0.00003126480320      0.00000604946701      0.00000000000000
    2 h      -0.00001289012563     -0.00000116931689      0.00000000000000
    3 c      -0.00004031061864     -0.00000317417062      0.00000000000000
    4 h       0.00000945941886     -0.00000047266996      0.00000000000000
    5 c      -0.00003126479957     -0.00000604946330      0.00000000000000
    6 h       0.00001289012201      0.00000116931528      0.00000000000000
    7 c       0.00004031062942      0.00000317416089      0.00000000000000
    8 h      -0.00000945942497      0.00000047267208      0.00000000000000
    9 c      -0.00005793144959     -0.00001402433725      0.00000000000000
   10 h       0.00002940429025      0.00000061163048      0.00000000000000
   11 c      -0.00000366062887      0.00003124022834      0.00000000000000
   12 h       0.00000878202151     -0.00000965251352      0.00000000000000
   13 h       0.00000336064990     -0.00000332353845      0.00000000000000
   14 c       0.00005793142358      0.00001402433169      0.00000000000000
   15 h      -0.00002940427870     -0.00000061163005      0.00000000000000
   16 c       0.00000366064591     -0.00003124021508      0.00000000000000
   17 h      -0.00000878202043      0.00000965251261      0.00000000000000
   18 h      -0.00000336065699      0.00000332353713      0.00000000000000
  *************************************************************************

  norm of actual CARTESIAN gradient:  1.30430E-04
  norm of actual INTERNAL  gradient:  7.85354E-05

  ENERGY =    -308.4461469508 a.u.; # of cycle =    7

  Approximate Hessian read from $hessapprox data section

  Hessian updated according to BFGS formula
  Number of zero Hessian eigenvalues:   0
  Number of structures for GDIIS interpolation:    5
  GDIIS step:     0.000374

  Transforming internal coordinate displacements to Cartesian space
      Iteration   1 residual norm     3.735966E-04
      Iteration   2 residual norm     2.879616E-08
      Iteration   3 residual norm     2.768769E-15
      Transformation converged
      Residual norm:    2.768769E-15 after    3 iterations

      ****************************************************************** 
                          CONVERGENCE INFORMATION

                               Converged?     Value      Criterion
             Energy change         yes      0.0000001   0.0000010
             RMS of displacement   yes      0.0000650   0.0005000
             RMS of gradient       yes      0.0000137   0.0005000
             MAX displacement      yes      0.0001949   0.0010000
             MAX gradient          yes      0.0000427   0.0010000
      ****************************************************************** 


    ------------------------------------------------------------------------
         total  cpu-time :   0.03 seconds
         total wall-time :   0.09 seconds
    ------------------------------------------------------------------------

   ****  statpt : all done  ****


    2017-04-05 14:59:54.536 

fine, there is no data group "$actual step"
next step = dscf
 operating system is UNIX !
 hostname is alaxis.univ-amu.fr

 dscf (alaxis.univ-amu.fr) : TURBOMOLE V7.1 ( 20661 ) 10 Jun 2016 at 08:56:48
 Copyright (C) 2016 TURBOMOLE GmbH, Karlsruhe


    2017-04-05 14:59:54.918 



                             d s c f - program

                   idea & directorship : reinhart ahlrichs
                   program development : marco haeser
                                         michael baer
                           dft version : oliver treutler


                          quantum chemistry group
                          universitaet  karlsruhe
                                  germany




                          References             
                                                 
          TURBOMOLE:                             
              R. Ahlrichs, M. Baer, M. Haeser, H. Horn, and
              C. Koelmel
              Electronic structure calculations on workstation
              computers: the program system TURBOMOLE
              Chem. Phys. Lett. 162: 165 (1989)
          Density Functional:                              
              O. Treutler and R. Ahlrichs                      
              Efficient Molecular Numerical Integration Schemes
              J. Chem. Phys. 102: 346 (1995)                   
          Parallel Version:                                
              Performance of parallel TURBOMOLE for Density    
              Functional Calculations                          
              M. v. Arnim and R. Ahlrichs                      
              J. Comp. Chem. 19: 1746 (1998)                   
                                         




              +--------------------------------------------------+
              | Atomic coordinate, charge and isotop information |
              +--------------------------------------------------+

                    atomic coordinates            atom    charge  isotop
          1.20760135    0.66742740    0.00000000    c      6.000     0
          1.12342762    2.71830593    0.00000000    h      1.000     0
          3.45926953   -0.47124448    0.00000000    c      6.000     0
          3.54767574   -2.52204583    0.00000000    h      1.000     0
         -1.20760135   -0.66742740    0.00000000    c      6.000     0
         -1.12342762   -2.71830593    0.00000000    h      1.000     0
         -3.45926953    0.47124448    0.00000000    c      6.000     0
         -3.54767574    2.52204583    0.00000000    h      1.000     0
         -5.87758056   -0.87322321    0.00000000    c      6.000     0
         -5.77998295   -2.92301664    0.00000000    h      1.000     0
         -8.12471506    0.24681099    0.00000000    c      6.000     0
         -9.86074054   -0.83972892    0.00000000    h      1.000     0
         -8.31181309    2.28948516    0.00000000    h      1.000     0
          5.87758056    0.87322321    0.00000000    c      6.000     0
          5.77998295    2.92301664    0.00000000    h      1.000     0
          8.12471506   -0.24681099    0.00000000    c      6.000     0
          9.86074054    0.83972892    0.00000000    h      1.000     0
          8.31181309   -2.28948516    0.00000000    h      1.000     0
 
       center of nuclear mass  :    0.00000000   -0.00000000    0.00000000
       center of nuclear charge:    0.00000000   -0.00000000    0.00000000

              +--------------------------------------------------+
              |               basis set information              |
              +--------------------------------------------------+

              we will work with the 1s 3p 5d 7f 9g ... basis set
              ...i.e. with spherical basis functions...

   type   atoms  prim   cont   basis
   ---------------------------------------------------------------------------
    c        8     24     14   def-SV(P)   [3s2p1d|7s4p1d]
    h       10      4      2   def-SV(P)   [2s|4s]
   ---------------------------------------------------------------------------
   total:   18    232    132
   ---------------------------------------------------------------------------

   total number of primitive shells          :   16
   total number of contracted shells         :   68
   total number of cartesian basis functions :  140
   total number of SCF-basis functions       :  132


 integral neglect threshold       :  0.24E-10
 integral storage threshold THIZE :  0.10E-04
 integral storage threshold THIME :         5


 symmetry group of the molecule :   cs

 the group has the following generators :
   c1(z)
   mirror plane sigma(xy)

    2 symmetry operations found

 there are 2 real representations :   a'   a"  

 maximum number of shells which are related by symmetry :  1


    mo occupation :
   irrep   mo's   occupied
    a'     100       25
    a"      32        4
 
 number of basis functions   :          132
 number of occupied orbitals :           29
 

 automatic virtual orbital shift switched on 
      shift if e(lumo)-e(homo) < 0.10000000    


          ------------------------
          nuclear repulsion energy  :   297.914781168    
          ------------------------

 
          -----------------
          -S,T+V- integrals
          -----------------

 1e-integrals will be neglected if expon. factor < 0.238712E-11
 
   Difference densities algorithm switched on.
   The maximal number of linear combinations of
   difference densities is          20 .

 DIIS switched on: error vector is FDS-SDF
 Max. Iterations for DIIS is     :   5
 DIIS matrix (see manual) 
    Scaling factor of diagonals  :  1.200
    threshold for scaling factor :  0.000

 scf convergence criterion : increment of total energy < .1000000D-06
                  and increment of one-electron energy < .1000000D-03

  MOs are in ASCII format !


 reading orbital data $scfmo  from file mos
 orbital characterization : scfconv=7

 DSCF restart information will be dumped onto file mos

 
                                              current damping :  0.300
 ITERATION  ENERGY          1e-ENERGY        2e-ENERGY     NORM[dD(SAO)]  TOL
   1  -308.44614696105    -1004.7604055     398.39947739    0.000D+00 0.238D-10
          max. resid. norm for Fia-block=  1.798D-05 for orbital     24a'        
          max. resid. fock norm         =  6.455D-05 for orbital     74a'        
          Delta Eig. =     0.0007318020 eV 
 
                                              current damping :  0.300
 ITERATION  ENERGY          1e-ENERGY        2e-ENERGY     NORM[dD(SAO)]  TOL
   2  -308.44614696484    -1004.7604709     398.39954279    0.120D-03 0.151D-10
          Norm of current diis error: 0.64134E-04
          max. resid. norm for Fia-block=  9.333D-06 for orbital     20a'        
          max. resid. fock norm         =  1.550D-05 for orbital     74a'        
          Delta Eig. =     0.0002218049 eV 

 ENERGY CONVERGED !

 
                                              current damping :  0.350
 ITERATION  ENERGY          1e-ENERGY        2e-ENERGY     NORM[dD(SAO)]  TOL
   3  -308.44614696482    -1004.7604405     398.39951237    0.216D-04 0.117D-10
          max. resid. norm for Fia-block=  2.806D-06 for orbital     24a'        
          max. resid. fock norm         =  3.747D-06 for orbital     24a'        

 convergence criteria satisfied after  3 iterations


                  ------------------------------------------ 
                 |  total energy      =   -308.44614696482  |
                  ------------------------------------------ 
                 :  kinetic energy    =    307.17455215000  :
                 :  potential energy  =   -615.62069911482  :
                 :  virial theorem    =      1.99587741709  :
                 :  wavefunction norm =      1.00000000000  :
                  .......................................... 


 orbitals $scfmo  will be written to file mos

    irrep                 21a'        22a'        23a'        24a'        25a'  
 eigenvalues H         -0.56565    -0.55637    -0.53022    -0.50598    -0.49207
            eV         -15.3922    -15.1397    -14.4280    -13.7685    -13.3900
 occupation              2.0000      2.0000      2.0000      2.0000      2.0000 

    irrep                 26a'        27a'        28a'        29a'        30a'  
 eigenvalues H          0.18239     0.21039     0.21098     0.21386     0.23170
            eV           4.9632      5.7251      5.7410      5.8194      6.3049

    irrep                  1a"         2a"         3a"         4a"         5a"  
 eigenvalues H         -0.48038    -0.43574    -0.36690    -0.28425     0.07528
            eV         -13.0719    -11.8571     -9.9840     -7.7350      2.0484
 occupation              2.0000      2.0000      2.0000      2.0000 

    irrep                  6a"         7a"         8a"         9a"        10a"  
 eigenvalues H          0.16768     0.23797     0.25654     0.67373     0.69480
            eV           4.5628      6.4754      6.9809     18.3334     18.9066
 
 
 
 
 ==============================================================================
                           electrostatic moments
 ==============================================================================

 reference point for electrostatic moments:    0.00000   0.00000   0.00000

 
              nuc           elec       ->  total
 ------------------------------------------------------------------------------
                          charge      
 ------------------------------------------------------------------------------
          58.000000     -58.000000      -0.000000
 
 ------------------------------------------------------------------------------
                       dipole moment  
 ------------------------------------------------------------------------------
   x       0.000000      -0.000000      -0.000000
   y      -0.000000       0.000000       0.000000
   z       0.000000       0.000000       0.000000
 
   | dipole moment | =     0.0000 a.u. =     0.0000 debye 
 
 ------------------------------------------------------------------------------
                     quadrupole moment
 ------------------------------------------------------------------------------
  xx    1794.935011   -1829.141782     -34.206771
  yy      74.373213    -107.620427     -33.247215
  zz       0.000000     -41.732851     -41.732851
  xy      28.139908     -28.404054      -0.264145
  xz       0.000000       0.000000       0.000000
  yz       0.000000       0.000000       0.000000
 
     1/3  trace=     -36.395612
     anisotropy=       8.061863
 
 ==============================================================================
 


    ------------------------------------------------------------------------
         total  cpu-time :   4.99 seconds
         total wall-time :   7.76 seconds
    ------------------------------------------------------------------------

   ****  dscf : all done  ****


    2017-04-05 15:00:02.674 

fine, there is no data group "$actual step"
next step = grad
 energy change  : actual value =  -0.1091E-06 threshold =   0.1000E-05
 geom. gradient : actual value =   0.4270E-04 threshold =   0.1000E-02

CONVERGENCY CRITERIA FULFILLED IN CYCLE 7

